V -t * -v 1.0a5 -a 0
A -t * -n 1 -p 0 -o 0x7fffffff -c 30 -a 1
A -t * -h 1 -m 1073741823 -s 0
c -t * -i 1 -n Red
n -t * -a 0 -s 0 -S UP -v circle -c blue -i blue
n -t * -a 1 -s 1 -S UP -v circle -c orange -i orange
n -t * -a 2 -s 2 -S UP -v circle -c green -i green
l -t * -s 0 -d 1 -S UP -r 1000000 -D 0.01 -c black
l -t * -s 1 -d 2 -S UP -r 700000 -D 0.01 -c black
+ -t 0.000169788487334637 -s 0 -d 1 -p rtProtoDV -e 3 -c 0 -i 0 -a 0 -x {0.2 1.1 -1 ------- null}
- -t 0.000169788487334637 -s 0 -d 1 -p rtProtoDV -e 3 -c 0 -i 0 -a 0 -x {0.2 1.1 -1 ------- null}
h -t 0.000169788487334637 -s 0 -d 1 -p rtProtoDV -e 3 -c 0 -i 0 -a 0 -x {0.2 1.1 -1 ------- null}
+ -t 0.00710233021858257 -s 2 -d 1 -p rtProtoDV -e 3 -c 0 -i 1 -a 0 -x {2.2 1.1 -1 ------- null}
- -t 0.00710233021858257 -s 2 -d 1 -p rtProtoDV -e 3 -c 0 -i 1 -a 0 -x {2.2 1.1 -1 ------- null}
h -t 0.00710233021858257 -s 2 -d 1 -p rtProtoDV -e 3 -c 0 -i 1 -a 0 -x {2.2 1.1 -1 ------- null}
r -t 0.0101937884873346 -s 0 -d 1 -p rtProtoDV -e 3 -c 0 -i 0 -a 0 -x {0.2 1.1 -1 ------- null}
r -t 0.0171366159328683 -s 2 -d 1 -p rtProtoDV -e 3 -c 0 -i 1 -a 0 -x {2.2 1.1 -1 ------- null}
+ -t 0.277940357931862 -s 1 -d 0 -p rtProtoDV -e 3 -c 0 -i 14 -a 0 -x {1.1 0.2 -1 ------- null}
- -t 0.277940357931862 -s 1 -d 0 -p rtProtoDV -e 3 -c 0 -i 14 -a 0 -x {1.1 0.2 -1 ------- null}
h -t 0.277940357931862 -s 1 -d 0 -p rtProtoDV -e 3 -c 0 -i 14 -a 0 -x {1.1 0.2 -1 ------- null}
+ -t 0.277940357931862 -s 1 -d 2 -p rtProtoDV -e 3 -c 0 -i 15 -a 0 -x {1.1 2.2 -1 ------- null}
- -t 0.277940357931862 -s 1 -d 2 -p rtProtoDV -e 3 -c 0 -i 15 -a 0 -x {1.1 2.2 -1 ------- null}
h -t 0.277940357931862 -s 1 -d 2 -p rtProtoDV -e 3 -c 0 -i 15 -a 0 -x {1.1 2.2 -1 ------- null}
r -t 0.287964357931862 -s 1 -d 0 -p rtProtoDV -e 3 -c 0 -i 14 -a 0 -x {1.1 0.2 -1 ------- null}
+ -t 0.287964357931862 -s 0 -d 1 -p rtProtoDV -e 3 -c 0 -i 16 -a 0 -x {0.2 1.1 -1 ------- null}
- -t 0.287964357931862 -s 0 -d 1 -p rtProtoDV -e 3 -c 0 -i 16 -a 0 -x {0.2 1.1 -1 ------- null}
h -t 0.287964357931862 -s 0 -d 1 -p rtProtoDV -e 3 -c 0 -i 16 -a 0 -x {0.2 1.1 -1 ------- null}
r -t 0.287974643646148 -s 1 -d 2 -p rtProtoDV -e 3 -c 0 -i 15 -a 0 -x {1.1 2.2 -1 ------- null}
+ -t 0.287974643646148 -s 2 -d 1 -p rtProtoDV -e 3 -c 0 -i 17 -a 0 -x {2.2 1.1 -1 ------- null}
- -t 0.287974643646148 -s 2 -d 1 -p rtProtoDV -e 3 -c 0 -i 17 -a 0 -x {2.2 1.1 -1 ------- null}
h -t 0.287974643646148 -s 2 -d 1 -p rtProtoDV -e 3 -c 0 -i 17 -a 0 -x {2.2 1.1 -1 ------- null}
+ -t 0.29 -s 0 -d 1 -p cbr -e 1000 -c 1 -i 18 -a 1 -x {0.0 2.0 12 ------- null}
- -t 0.29 -s 0 -d 1 -p cbr -e 1000 -c 1 -i 18 -a 1 -x {0.0 2.0 12 ------- null}
h -t 0.29 -s 0 -d 1 -p cbr -e 1000 -c 1 -i 18 -a 1 -x {0.0 2.0 -1 ------- null}
+ -t 0.29 -s 0 -d 1 -p cbr -e 500 -c 1 -i 19 -a 1 -x {0.0 2.0 13 ------- null}
r -t 0.297988357931862 -s 0 -d 1 -p rtProtoDV -e 3 -c 0 -i 16 -a 0 -x {0.2 1.1 -1 ------- null}
- -t 0.298 -s 0 -d 1 -p cbr -e 500 -c 1 -i 19 -a 1 -x {0.0 2.0 13 ------- null}
h -t 0.298 -s 0 -d 1 -p cbr -e 500 -c 1 -i 19 -a 1 -x {0.0 2.0 -1 ------- null}
r -t 0.298008929360433 -s 2 -d 1 -p rtProtoDV -e 3 -c 0 -i 17 -a 0 -x {2.2 1.1 -1 ------- null}
+ -t 0.305 -s 0 -d 1 -p cbr -e 1000 -c 1 -i 20 -a 1 -x {0.0 2.0 14 ------- null}
- -t 0.305 -s 0 -d 1 -p cbr -e 1000 -c 1 -i 20 -a 1 -x {0.0 2.0 14 ------- null}
h -t 0.305 -s 0 -d 1 -p cbr -e 1000 -c 1 -i 20 -a 1 -x {0.0 2.0 -1 ------- null}
+ -t 0.305 -s 0 -d 1 -p cbr -e 500 -c 1 -i 21 -a 1 -x {0.0 2.0 15 ------- null}
r -t 0.308 -s 0 -d 1 -p cbr -e 1000 -c 1 -i 18 -a 1 -x {0.0 2.0 12 ------- null}
+ -t 0.308 -s 1 -d 2 -p cbr -e 1000 -c 1 -i 18 -a 1 -x {0.0 2.0 12 ------- null}
- -t 0.308 -s 1 -d 2 -p cbr -e 1000 -c 1 -i 18 -a 1 -x {0.0 2.0 12 ------- null}
h -t 0.308 -s 1 -d 2 -p cbr -e 1000 -c 1 -i 18 -a 1 -x {0.0 2.0 -1 ------- null}
r -t 0.312 -s 0 -d 1 -p cbr -e 500 -c 1 -i 19 -a 1 -x {0.0 2.0 13 ------- null}
+ -t 0.312 -s 1 -d 2 -p cbr -e 500 -c 1 -i 19 -a 1 -x {0.0 2.0 13 ------- null}
- -t 0.313 -s 0 -d 1 -p cbr -e 500 -c 1 -i 21 -a 1 -x {0.0 2.0 15 ------- null}
h -t 0.313 -s 0 -d 1 -p cbr -e 500 -c 1 -i 21 -a 1 -x {0.0 2.0 -1 ------- null}
- -t 0.319428571428572 -s 1 -d 2 -p cbr -e 500 -c 1 -i 19 -a 1 -x {0.0 2.0 13 ------- null}
h -t 0.319428571428572 -s 1 -d 2 -p cbr -e 500 -c 1 -i 19 -a 1 -x {0.0 2.0 -1 ------- null}
+ -t 0.32 -s 0 -d 1 -p cbr -e 1000 -c 1 -i 22 -a 1 -x {0.0 2.0 16 ------- null}
- -t 0.32 -s 0 -d 1 -p cbr -e 1000 -c 1 -i 22 -a 1 -x {0.0 2.0 16 ------- null}
h -t 0.32 -s 0 -d 1 -p cbr -e 1000 -c 1 -i 22 -a 1 -x {0.0 2.0 -1 ------- null}
+ -t 0.32 -s 0 -d 1 -p cbr -e 500 -c 1 -i 23 -a 1 -x {0.0 2.0 17 ------- null}
r -t 0.323 -s 0 -d 1 -p cbr -e 1000 -c 1 -i 20 -a 1 -x {0.0 2.0 14 ------- null}
+ -t 0.323 -s 1 -d 2 -p cbr -e 1000 -c 1 -i 20 -a 1 -x {0.0 2.0 14 ------- null}
- -t 0.325142857142857 -s 1 -d 2 -p cbr -e 1000 -c 1 -i 20 -a 1 -x {0.0 2.0 14 ------- null}
h -t 0.325142857142857 -s 1 -d 2 -p cbr -e 1000 -c 1 -i 20 -a 1 -x {0.0 2.0 -1 ------- null}
r -t 0.327 -s 0 -d 1 -p cbr -e 500 -c 1 -i 21 -a 1 -x {0.0 2.0 15 ------- null}
+ -t 0.327 -s 1 -d 2 -p cbr -e 500 -c 1 -i 21 -a 1 -x {0.0 2.0 15 ------- null}
- -t 0.328 -s 0 -d 1 -p cbr -e 500 -c 1 -i 23 -a 1 -x {0.0 2.0 17 ------- null}
h -t 0.328 -s 0 -d 1 -p cbr -e 500 -c 1 -i 23 -a 1 -x {0.0 2.0 -1 ------- null}
r -t 0.329428571428572 -s 1 -d 2 -p cbr -e 1000 -c 1 -i 18 -a 1 -x {0.0 2.0 12 ------- null}
+ -t 0.335 -s 0 -d 1 -p cbr -e 1000 -c 1 -i 24 -a 1 -x {0.0 2.0 18 ------- null}
- -t 0.335 -s 0 -d 1 -p cbr -e 1000 -c 1 -i 24 -a 1 -x {0.0 2.0 18 ------- null}
h -t 0.335 -s 0 -d 1 -p cbr -e 1000 -c 1 -i 24 -a 1 -x {0.0 2.0 -1 ------- null}
+ -t 0.335 -s 0 -d 1 -p cbr -e 500 -c 1 -i 25 -a 1 -x {0.0 2.0 19 ------- null}
r -t 0.335142857142857 -s 1 -d 2 -p cbr -e 500 -c 1 -i 19 -a 1 -x {0.0 2.0 13 ------- null}
- -t 0.336571428571429 -s 1 -d 2 -p cbr -e 500 -c 1 -i 21 -a 1 -x {0.0 2.0 15 ------- null}
h -t 0.336571428571429 -s 1 -d 2 -p cbr -e 500 -c 1 -i 21 -a 1 -x {0.0 2.0 -1 ------- null}
r -t 0.338 -s 0 -d 1 -p cbr -e 1000 -c 1 -i 22 -a 1 -x {0.0 2.0 16 ------- null}
+ -t 0.338 -s 1 -d 2 -p cbr -e 1000 -c 1 -i 22 -a 1 -x {0.0 2.0 16 ------- null}
r -t 0.342 -s 0 -d 1 -p cbr -e 500 -c 1 -i 23 -a 1 -x {0.0 2.0 17 ------- null}
+ -t 0.342 -s 1 -d 2 -p cbr -e 500 -c 1 -i 23 -a 1 -x {0.0 2.0 17 ------- null}
- -t 0.342285714285714 -s 1 -d 2 -p cbr -e 1000 -c 1 -i 22 -a 1 -x {0.0 2.0 16 ------- null}
h -t 0.342285714285714 -s 1 -d 2 -p cbr -e 1000 -c 1 -i 22 -a 1 -x {0.0 2.0 -1 ------- null}
- -t 0.343 -s 0 -d 1 -p cbr -e 500 -c 1 -i 25 -a 1 -x {0.0 2.0 19 ------- null}
h -t 0.343 -s 0 -d 1 -p cbr -e 500 -c 1 -i 25 -a 1 -x {0.0 2.0 -1 ------- null}
r -t 0.346571428571429 -s 1 -d 2 -p cbr -e 1000 -c 1 -i 20 -a 1 -x {0.0 2.0 14 ------- null}
+ -t 0.35 -s 0 -d 1 -p cbr -e 1000 -c 1 -i 26 -a 1 -x {0.0 2.0 20 ------- null}
- -t 0.35 -s 0 -d 1 -p cbr -e 1000 -c 1 -i 26 -a 1 -x {0.0 2.0 20 ------- null}
h -t 0.35 -s 0 -d 1 -p cbr -e 1000 -c 1 -i 26 -a 1 -x {0.0 2.0 -1 ------- null}
+ -t 0.35 -s 0 -d 1 -p cbr -e 500 -c 1 -i 27 -a 1 -x {0.0 2.0 21 ------- null}
r -t 0.352285714285714 -s 1 -d 2 -p cbr -e 500 -c 1 -i 21 -a 1 -x {0.0 2.0 15 ------- null}
r -t 0.353 -s 0 -d 1 -p cbr -e 1000 -c 1 -i 24 -a 1 -x {0.0 2.0 18 ------- null}
+ -t 0.353 -s 1 -d 2 -p cbr -e 1000 -c 1 -i 24 -a 1 -x {0.0 2.0 18 ------- null}
- -t 0.353714285714286 -s 1 -d 2 -p cbr -e 500 -c 1 -i 23 -a 1 -x {0.0 2.0 17 ------- null}
h -t 0.353714285714286 -s 1 -d 2 -p cbr -e 500 -c 1 -i 23 -a 1 -x {0.0 2.0 -1 ------- null}
r -t 0.357 -s 0 -d 1 -p cbr -e 500 -c 1 -i 25 -a 1 -x {0.0 2.0 19 ------- null}
+ -t 0.357 -s 1 -d 2 -p cbr -e 500 -c 1 -i 25 -a 1 -x {0.0 2.0 19 ------- null}
- -t 0.358 -s 0 -d 1 -p cbr -e 500 -c 1 -i 27 -a 1 -x {0.0 2.0 21 ------- null}
h -t 0.358 -s 0 -d 1 -p cbr -e 500 -c 1 -i 27 -a 1 -x {0.0 2.0 -1 ------- null}
- -t 0.359428571428572 -s 1 -d 2 -p cbr -e 1000 -c 1 -i 24 -a 1 -x {0.0 2.0 18 ------- null}
h -t 0.359428571428572 -s 1 -d 2 -p cbr -e 1000 -c 1 -i 24 -a 1 -x {0.0 2.0 -1 ------- null}
r -t 0.363714285714286 -s 1 -d 2 -p cbr -e 1000 -c 1 -i 22 -a 1 -x {0.0 2.0 16 ------- null}
+ -t 0.365 -s 0 -d 1 -p cbr -e 1000 -c 1 -i 28 -a 1 -x {0.0 2.0 22 ------- null}
- -t 0.365 -s 0 -d 1 -p cbr -e 1000 -c 1 -i 28 -a 1 -x {0.0 2.0 22 ------- null}
h -t 0.365 -s 0 -d 1 -p cbr -e 1000 -c 1 -i 28 -a 1 -x {0.0 2.0 -1 ------- null}
+ -t 0.365 -s 0 -d 1 -p cbr -e 500 -c 1 -i 29 -a 1 -x {0.0 2.0 23 ------- null}
r -t 0.368 -s 0 -d 1 -p cbr -e 1000 -c 1 -i 26 -a 1 -x {0.0 2.0 20 ------- null}
+ -t 0.368 -s 1 -d 2 -p cbr -e 1000 -c 1 -i 26 -a 1 -x {0.0 2.0 20 ------- null}
r -t 0.369428571428572 -s 1 -d 2 -p cbr -e 500 -c 1 -i 23 -a 1 -x {0.0 2.0 17 ------- null}
- -t 0.370857142857143 -s 1 -d 2 -p cbr -e 500 -c 1 -i 25 -a 1 -x {0.0 2.0 19 ------- null}
h -t 0.370857142857143 -s 1 -d 2 -p cbr -e 500 -c 1 -i 25 -a 1 -x {0.0 2.0 -1 ------- null}
r -t 0.372 -s 0 -d 1 -p cbr -e 500 -c 1 -i 27 -a 1 -x {0.0 2.0 21 ------- null}
+ -t 0.372 -s 1 -d 2 -p cbr -e 500 -c 1 -i 27 -a 1 -x {0.0 2.0 21 ------- null}
- -t 0.373 -s 0 -d 1 -p cbr -e 500 -c 1 -i 29 -a 1 -x {0.0 2.0 23 ------- null}
h -t 0.373 -s 0 -d 1 -p cbr -e 500 -c 1 -i 29 -a 1 -x {0.0 2.0 -1 ------- null}
- -t 0.376571428571429 -s 1 -d 2 -p cbr -e 1000 -c 1 -i 26 -a 1 -x {0.0 2.0 20 ------- null}
h -t 0.376571428571429 -s 1 -d 2 -p cbr -e 1000 -c 1 -i 26 -a 1 -x {0.0 2.0 -1 ------- null}
+ -t 0.38 -s 0 -d 1 -p cbr -e 1000 -c 1 -i 30 -a 1 -x {0.0 2.0 24 ------- null}
- -t 0.38 -s 0 -d 1 -p cbr -e 1000 -c 1 -i 30 -a 1 -x {0.0 2.0 24 ------- null}
h -t 0.38 -s 0 -d 1 -p cbr -e 1000 -c 1 -i 30 -a 1 -x {0.0 2.0 -1 ------- null}
+ -t 0.38 -s 0 -d 1 -p cbr -e 500 -c 1 -i 31 -a 1 -x {0.0 2.0 25 ------- null}
r -t 0.380857142857143 -s 1 -d 2 -p cbr -e 1000 -c 1 -i 24 -a 1 -x {0.0 2.0 18 ------- null}
r -t 0.383 -s 0 -d 1 -p cbr -e 1000 -c 1 -i 28 -a 1 -x {0.0 2.0 22 ------- null}
+ -t 0.383 -s 1 -d 2 -p cbr -e 1000 -c 1 -i 28 -a 1 -x {0.0 2.0 22 ------- null}
r -t 0.386571428571429 -s 1 -d 2 -p cbr -e 500 -c 1 -i 25 -a 1 -x {0.0 2.0 19 ------- null}
r -t 0.387 -s 0 -d 1 -p cbr -e 500 -c 1 -i 29 -a 1 -x {0.0 2.0 23 ------- null}
+ -t 0.387 -s 1 -d 2 -p cbr -e 500 -c 1 -i 29 -a 1 -x {0.0 2.0 23 ------- null}
- -t 0.388 -s 0 -d 1 -p cbr -e 500 -c 1 -i 31 -a 1 -x {0.0 2.0 25 ------- null}
h -t 0.388 -s 0 -d 1 -p cbr -e 500 -c 1 -i 31 -a 1 -x {0.0 2.0 -1 ------- null}
- -t 0.388 -s 1 -d 2 -p cbr -e 500 -c 1 -i 27 -a 1 -x {0.0 2.0 21 ------- null}
h -t 0.388 -s 1 -d 2 -p cbr -e 500 -c 1 -i 27 -a 1 -x {0.0 2.0 -1 ------- null}
- -t 0.393714285714286 -s 1 -d 2 -p cbr -e 1000 -c 1 -i 28 -a 1 -x {0.0 2.0 22 ------- null}
h -t 0.393714285714286 -s 1 -d 2 -p cbr -e 1000 -c 1 -i 28 -a 1 -x {0.0 2.0 -1 ------- null}
+ -t 0.395 -s 0 -d 1 -p cbr -e 1000 -c 1 -i 32 -a 1 -x {0.0 2.0 26 ------- null}
- -t 0.395 -s 0 -d 1 -p cbr -e 1000 -c 1 -i 32 -a 1 -x {0.0 2.0 26 ------- null}
h -t 0.395 -s 0 -d 1 -p cbr -e 1000 -c 1 -i 32 -a 1 -x {0.0 2.0 -1 ------- null}
+ -t 0.395 -s 0 -d 1 -p cbr -e 500 -c 1 -i 33 -a 1 -x {0.0 2.0 27 ------- null}
r -t 0.398 -s 0 -d 1 -p cbr -e 1000 -c 1 -i 30 -a 1 -x {0.0 2.0 24 ------- null}
+ -t 0.398 -s 1 -d 2 -p cbr -e 1000 -c 1 -i 30 -a 1 -x {0.0 2.0 24 ------- null}
r -t 0.398 -s 1 -d 2 -p cbr -e 1000 -c 1 -i 26 -a 1 -x {0.0 2.0 20 ------- null}
r -t 0.402 -s 0 -d 1 -p cbr -e 500 -c 1 -i 31 -a 1 -x {0.0 2.0 25 ------- null}
+ -t 0.402 -s 1 -d 2 -p cbr -e 500 -c 1 -i 31 -a 1 -x {0.0 2.0 25 ------- null}
- -t 0.403 -s 0 -d 1 -p cbr -e 500 -c 1 -i 33 -a 1 -x {0.0 2.0 27 ------- null}
h -t 0.403 -s 0 -d 1 -p cbr -e 500 -c 1 -i 33 -a 1 -x {0.0 2.0 -1 ------- null}
r -t 0.403714285714286 -s 1 -d 2 -p cbr -e 500 -c 1 -i 27 -a 1 -x {0.0 2.0 21 ------- null}
- -t 0.405142857142857 -s 1 -d 2 -p cbr -e 500 -c 1 -i 29 -a 1 -x {0.0 2.0 23 ------- null}
h -t 0.405142857142857 -s 1 -d 2 -p cbr -e 500 -c 1 -i 29 -a 1 -x {0.0 2.0 -1 ------- null}
+ -t 0.41 -s 0 -d 1 -p cbr -e 1000 -c 1 -i 34 -a 1 -x {0.0 2.0 28 ------- null}
- -t 0.41 -s 0 -d 1 -p cbr -e 1000 -c 1 -i 34 -a 1 -x {0.0 2.0 28 ------- null}
h -t 0.41 -s 0 -d 1 -p cbr -e 1000 -c 1 -i 34 -a 1 -x {0.0 2.0 -1 ------- null}
+ -t 0.41 -s 0 -d 1 -p cbr -e 500 -c 1 -i 35 -a 1 -x {0.0 2.0 29 ------- null}
- -t 0.410857142857143 -s 1 -d 2 -p cbr -e 1000 -c 1 -i 30 -a 1 -x {0.0 2.0 24 ------- null}
h -t 0.410857142857143 -s 1 -d 2 -p cbr -e 1000 -c 1 -i 30 -a 1 -x {0.0 2.0 -1 ------- null}
r -t 0.413 -s 0 -d 1 -p cbr -e 1000 -c 1 -i 32 -a 1 -x {0.0 2.0 26 ------- null}
+ -t 0.413 -s 1 -d 2 -p cbr -e 1000 -c 1 -i 32 -a 1 -x {0.0 2.0 26 ------- null}
r -t 0.415142857142857 -s 1 -d 2 -p cbr -e 1000 -c 1 -i 28 -a 1 -x {0.0 2.0 22 ------- null}
r -t 0.417 -s 0 -d 1 -p cbr -e 500 -c 1 -i 33 -a 1 -x {0.0 2.0 27 ------- null}
+ -t 0.417 -s 1 -d 2 -p cbr -e 500 -c 1 -i 33 -a 1 -x {0.0 2.0 27 ------- null}
- -t 0.418 -s 0 -d 1 -p cbr -e 500 -c 1 -i 35 -a 1 -x {0.0 2.0 29 ------- null}
h -t 0.418 -s 0 -d 1 -p cbr -e 500 -c 1 -i 35 -a 1 -x {0.0 2.0 -1 ------- null}
r -t 0.420857142857143 -s 1 -d 2 -p cbr -e 500 -c 1 -i 29 -a 1 -x {0.0 2.0 23 ------- null}
- -t 0.422285714285715 -s 1 -d 2 -p cbr -e 500 -c 1 -i 31 -a 1 -x {0.0 2.0 25 ------- null}
h -t 0.422285714285715 -s 1 -d 2 -p cbr -e 500 -c 1 -i 31 -a 1 -x {0.0 2.0 -1 ------- null}
+ -t 0.425 -s 0 -d 1 -p cbr -e 1000 -c 1 -i 36 -a 1 -x {0.0 2.0 30 ------- null}
- -t 0.425 -s 0 -d 1 -p cbr -e 1000 -c 1 -i 36 -a 1 -x {0.0 2.0 30 ------- null}
h -t 0.425 -s 0 -d 1 -p cbr -e 1000 -c 1 -i 36 -a 1 -x {0.0 2.0 -1 ------- null}
+ -t 0.425 -s 0 -d 1 -p cbr -e 500 -c 1 -i 37 -a 1 -x {0.0 2.0 31 ------- null}
r -t 0.428 -s 0 -d 1 -p cbr -e 1000 -c 1 -i 34 -a 1 -x {0.0 2.0 28 ------- null}
+ -t 0.428 -s 1 -d 2 -p cbr -e 1000 -c 1 -i 34 -a 1 -x {0.0 2.0 28 ------- null}
- -t 0.428 -s 1 -d 2 -p cbr -e 1000 -c 1 -i 32 -a 1 -x {0.0 2.0 26 ------- null}
h -t 0.428 -s 1 -d 2 -p cbr -e 1000 -c 1 -i 32 -a 1 -x {0.0 2.0 -1 ------- null}
r -t 0.432 -s 0 -d 1 -p cbr -e 500 -c 1 -i 35 -a 1 -x {0.0 2.0 29 ------- null}
+ -t 0.432 -s 1 -d 2 -p cbr -e 500 -c 1 -i 35 -a 1 -x {0.0 2.0 29 ------- null}
r -t 0.432285714285715 -s 1 -d 2 -p cbr -e 1000 -c 1 -i 30 -a 1 -x {0.0 2.0 24 ------- null}
- -t 0.433 -s 0 -d 1 -p cbr -e 500 -c 1 -i 37 -a 1 -x {0.0 2.0 31 ------- null}
h -t 0.433 -s 0 -d 1 -p cbr -e 500 -c 1 -i 37 -a 1 -x {0.0 2.0 -1 ------- null}
r -t 0.438 -s 1 -d 2 -p cbr -e 500 -c 1 -i 31 -a 1 -x {0.0 2.0 25 ------- null}
- -t 0.439428571428572 -s 1 -d 2 -p cbr -e 500 -c 1 -i 33 -a 1 -x {0.0 2.0 27 ------- null}
h -t 0.439428571428572 -s 1 -d 2 -p cbr -e 500 -c 1 -i 33 -a 1 -x {0.0 2.0 -1 ------- null}
+ -t 0.44 -s 0 -d 1 -p cbr -e 1000 -c 1 -i 38 -a 1 -x {0.0 2.0 32 ------- null}
- -t 0.44 -s 0 -d 1 -p cbr -e 1000 -c 1 -i 38 -a 1 -x {0.0 2.0 32 ------- null}
h -t 0.44 -s 0 -d 1 -p cbr -e 1000 -c 1 -i 38 -a 1 -x {0.0 2.0 -1 ------- null}
+ -t 0.44 -s 0 -d 1 -p cbr -e 500 -c 1 -i 39 -a 1 -x {0.0 2.0 33 ------- null}
r -t 0.443 -s 0 -d 1 -p cbr -e 1000 -c 1 -i 36 -a 1 -x {0.0 2.0 30 ------- null}
+ -t 0.443 -s 1 -d 2 -p cbr -e 1000 -c 1 -i 36 -a 1 -x {0.0 2.0 30 ------- null}
- -t 0.445142857142858 -s 1 -d 2 -p cbr -e 1000 -c 1 -i 34 -a 1 -x {0.0 2.0 28 ------- null}
h -t 0.445142857142858 -s 1 -d 2 -p cbr -e 1000 -c 1 -i 34 -a 1 -x {0.0 2.0 -1 ------- null}
r -t 0.447 -s 0 -d 1 -p cbr -e 500 -c 1 -i 37 -a 1 -x {0.0 2.0 31 ------- null}
+ -t 0.447 -s 1 -d 2 -p cbr -e 500 -c 1 -i 37 -a 1 -x {0.0 2.0 31 ------- null}
- -t 0.448 -s 0 -d 1 -p cbr -e 500 -c 1 -i 39 -a 1 -x {0.0 2.0 33 ------- null}
h -t 0.448 -s 0 -d 1 -p cbr -e 500 -c 1 -i 39 -a 1 -x {0.0 2.0 -1 ------- null}
r -t 0.449428571428572 -s 1 -d 2 -p cbr -e 1000 -c 1 -i 32 -a 1 -x {0.0 2.0 26 ------- null}
+ -t 0.455 -s 0 -d 1 -p cbr -e 1000 -c 1 -i 40 -a 1 -x {0.0 2.0 34 ------- null}
- -t 0.455 -s 0 -d 1 -p cbr -e 1000 -c 1 -i 40 -a 1 -x {0.0 2.0 34 ------- null}
h -t 0.455 -s 0 -d 1 -p cbr -e 1000 -c 1 -i 40 -a 1 -x {0.0 2.0 -1 ------- null}
+ -t 0.455 -s 0 -d 1 -p cbr -e 500 -c 1 -i 41 -a 1 -x {0.0 2.0 35 ------- null}
r -t 0.455142857142858 -s 1 -d 2 -p cbr -e 500 -c 1 -i 33 -a 1 -x {0.0 2.0 27 ------- null}
- -t 0.456571428571429 -s 1 -d 2 -p cbr -e 500 -c 1 -i 35 -a 1 -x {0.0 2.0 29 ------- null}
h -t 0.456571428571429 -s 1 -d 2 -p cbr -e 500 -c 1 -i 35 -a 1 -x {0.0 2.0 -1 ------- null}
r -t 0.458 -s 0 -d 1 -p cbr -e 1000 -c 1 -i 38 -a 1 -x {0.0 2.0 32 ------- null}
+ -t 0.458 -s 1 -d 2 -p cbr -e 1000 -c 1 -i 38 -a 1 -x {0.0 2.0 32 ------- null}
r -t 0.462 -s 0 -d 1 -p cbr -e 500 -c 1 -i 39 -a 1 -x {0.0 2.0 33 ------- null}
+ -t 0.462 -s 1 -d 2 -p cbr -e 500 -c 1 -i 39 -a 1 -x {0.0 2.0 33 ------- null}
- -t 0.462285714285715 -s 1 -d 2 -p cbr -e 1000 -c 1 -i 36 -a 1 -x {0.0 2.0 30 ------- null}
h -t 0.462285714285715 -s 1 -d 2 -p cbr -e 1000 -c 1 -i 36 -a 1 -x {0.0 2.0 -1 ------- null}
- -t 0.463 -s 0 -d 1 -p cbr -e 500 -c 1 -i 41 -a 1 -x {0.0 2.0 35 ------- null}
h -t 0.463 -s 0 -d 1 -p cbr -e 500 -c 1 -i 41 -a 1 -x {0.0 2.0 -1 ------- null}
r -t 0.466571428571429 -s 1 -d 2 -p cbr -e 1000 -c 1 -i 34 -a 1 -x {0.0 2.0 28 ------- null}
+ -t 0.47 -s 0 -d 1 -p cbr -e 1000 -c 1 -i 42 -a 1 -x {0.0 2.0 36 ------- null}
- -t 0.47 -s 0 -d 1 -p cbr -e 1000 -c 1 -i 42 -a 1 -x {0.0 2.0 36 ------- null}
h -t 0.47 -s 0 -d 1 -p cbr -e 1000 -c 1 -i 42 -a 1 -x {0.0 2.0 -1 ------- null}
+ -t 0.47 -s 0 -d 1 -p cbr -e 500 -c 1 -i 43 -a 1 -x {0.0 2.0 37 ------- null}
r -t 0.472285714285715 -s 1 -d 2 -p cbr -e 500 -c 1 -i 35 -a 1 -x {0.0 2.0 29 ------- null}
r -t 0.473 -s 0 -d 1 -p cbr -e 1000 -c 1 -i 40 -a 1 -x {0.0 2.0 34 ------- null}
+ -t 0.473 -s 1 -d 2 -p cbr -e 1000 -c 1 -i 40 -a 1 -x {0.0 2.0 34 ------- null}
- -t 0.473714285714286 -s 1 -d 2 -p cbr -e 500 -c 1 -i 37 -a 1 -x {0.0 2.0 31 ------- null}
h -t 0.473714285714286 -s 1 -d 2 -p cbr -e 500 -c 1 -i 37 -a 1 -x {0.0 2.0 -1 ------- null}
r -t 0.477 -s 0 -d 1 -p cbr -e 500 -c 1 -i 41 -a 1 -x {0.0 2.0 35 ------- null}
+ -t 0.477 -s 1 -d 2 -p cbr -e 500 -c 1 -i 41 -a 1 -x {0.0 2.0 35 ------- null}
- -t 0.478 -s 0 -d 1 -p cbr -e 500 -c 1 -i 43 -a 1 -x {0.0 2.0 37 ------- null}
h -t 0.478 -s 0 -d 1 -p cbr -e 500 -c 1 -i 43 -a 1 -x {0.0 2.0 -1 ------- null}
- -t 0.479428571428572 -s 1 -d 2 -p cbr -e 1000 -c 1 -i 38 -a 1 -x {0.0 2.0 32 ------- null}
h -t 0.479428571428572 -s 1 -d 2 -p cbr -e 1000 -c 1 -i 38 -a 1 -x {0.0 2.0 -1 ------- null}
r -t 0.483714285714286 -s 1 -d 2 -p cbr -e 1000 -c 1 -i 36 -a 1 -x {0.0 2.0 30 ------- null}
+ -t 0.485 -s 0 -d 1 -p cbr -e 1000 -c 1 -i 44 -a 1 -x {0.0 2.0 38 ------- null}
- -t 0.485 -s 0 -d 1 -p cbr -e 1000 -c 1 -i 44 -a 1 -x {0.0 2.0 38 ------- null}
h -t 0.485 -s 0 -d 1 -p cbr -e 1000 -c 1 -i 44 -a 1 -x {0.0 2.0 -1 ------- null}
+ -t 0.485 -s 0 -d 1 -p cbr -e 500 -c 1 -i 45 -a 1 -x {0.0 2.0 39 ------- null}
r -t 0.488 -s 0 -d 1 -p cbr -e 1000 -c 1 -i 42 -a 1 -x {0.0 2.0 36 ------- null}
+ -t 0.488 -s 1 -d 2 -p cbr -e 1000 -c 1 -i 42 -a 1 -x {0.0 2.0 36 ------- null}
r -t 0.489428571428572 -s 1 -d 2 -p cbr -e 500 -c 1 -i 37 -a 1 -x {0.0 2.0 31 ------- null}
- -t 0.490857142857143 -s 1 -d 2 -p cbr -e 500 -c 1 -i 39 -a 1 -x {0.0 2.0 33 ------- null}
h -t 0.490857142857143 -s 1 -d 2 -p cbr -e 500 -c 1 -i 39 -a 1 -x {0.0 2.0 -1 ------- null}
r -t 0.492 -s 0 -d 1 -p cbr -e 500 -c 1 -i 43 -a 1 -x {0.0 2.0 37 ------- null}
+ -t 0.492 -s 1 -d 2 -p cbr -e 500 -c 1 -i 43 -a 1 -x {0.0 2.0 37 ------- null}
- -t 0.493 -s 0 -d 1 -p cbr -e 500 -c 1 -i 45 -a 1 -x {0.0 2.0 39 ------- null}
h -t 0.493 -s 0 -d 1 -p cbr -e 500 -c 1 -i 45 -a 1 -x {0.0 2.0 -1 ------- null}
- -t 0.496571428571429 -s 1 -d 2 -p cbr -e 1000 -c 1 -i 40 -a 1 -x {0.0 2.0 34 ------- null}
h -t 0.496571428571429 -s 1 -d 2 -p cbr -e 1000 -c 1 -i 40 -a 1 -x {0.0 2.0 -1 ------- null}
+ -t 0.5 -s 0 -d 1 -p cbr -e 1000 -c 1 -i 46 -a 1 -x {0.0 2.0 40 ------- null}
- -t 0.5 -s 0 -d 1 -p cbr -e 1000 -c 1 -i 46 -a 1 -x {0.0 2.0 40 ------- null}
h -t 0.5 -s 0 -d 1 -p cbr -e 1000 -c 1 -i 46 -a 1 -x {0.0 2.0 -1 ------- null}
+ -t 0.5 -s 0 -d 1 -p cbr -e 500 -c 1 -i 47 -a 1 -x {0.0 2.0 41 ------- null}
r -t 0.500857142857143 -s 1 -d 2 -p cbr -e 1000 -c 1 -i 38 -a 1 -x {0.0 2.0 32 ------- null}
r -t 0.503 -s 0 -d 1 -p cbr -e 1000 -c 1 -i 44 -a 1 -x {0.0 2.0 38 ------- null}
+ -t 0.503 -s 1 -d 2 -p cbr -e 1000 -c 1 -i 44 -a 1 -x {0.0 2.0 38 ------- null}
r -t 0.506571428571429 -s 1 -d 2 -p cbr -e 500 -c 1 -i 39 -a 1 -x {0.0 2.0 33 ------- null}
r -t 0.507 -s 0 -d 1 -p cbr -e 500 -c 1 -i 45 -a 1 -x {0.0 2.0 39 ------- null}
+ -t 0.507 -s 1 -d 2 -p cbr -e 500 -c 1 -i 45 -a 1 -x {0.0 2.0 39 ------- null}
d -t 0.507 -s 1 -d 2 -p cbr -e 500 -c 1 -i 45 -a 1 -x {0.0 2.0 39 ------- null}
- -t 0.508 -s 0 -d 1 -p cbr -e 500 -c 1 -i 47 -a 1 -x {0.0 2.0 41 ------- null}
h -t 0.508 -s 0 -d 1 -p cbr -e 500 -c 1 -i 47 -a 1 -x {0.0 2.0 -1 ------- null}
- -t 0.508000000000001 -s 1 -d 2 -p cbr -e 500 -c 1 -i 41 -a 1 -x {0.0 2.0 35 ------- null}
h -t 0.508000000000001 -s 1 -d 2 -p cbr -e 500 -c 1 -i 41 -a 1 -x {0.0 2.0 -1 ------- null}
- -t 0.513714285714286 -s 1 -d 2 -p cbr -e 1000 -c 1 -i 42 -a 1 -x {0.0 2.0 36 ------- null}
h -t 0.513714285714286 -s 1 -d 2 -p cbr -e 1000 -c 1 -i 42 -a 1 -x {0.0 2.0 -1 ------- null}
+ -t 0.515 -s 0 -d 1 -p cbr -e 1000 -c 1 -i 48 -a 1 -x {0.0 2.0 42 ------- null}
- -t 0.515 -s 0 -d 1 -p cbr -e 1000 -c 1 -i 48 -a 1 -x {0.0 2.0 42 ------- null}
h -t 0.515 -s 0 -d 1 -p cbr -e 1000 -c 1 -i 48 -a 1 -x {0.0 2.0 -1 ------- null}
+ -t 0.515 -s 0 -d 1 -p cbr -e 500 -c 1 -i 49 -a 1 -x {0.0 2.0 43 ------- null}
r -t 0.518 -s 0 -d 1 -p cbr -e 1000 -c 1 -i 46 -a 1 -x {0.0 2.0 40 ------- null}
+ -t 0.518 -s 1 -d 2 -p cbr -e 1000 -c 1 -i 46 -a 1 -x {0.0 2.0 40 ------- null}
r -t 0.518000000000001 -s 1 -d 2 -p cbr -e 1000 -c 1 -i 40 -a 1 -x {0.0 2.0 34 ------- null}
r -t 0.522 -s 0 -d 1 -p cbr -e 500 -c 1 -i 47 -a 1 -x {0.0 2.0 41 ------- null}
+ -t 0.522 -s 1 -d 2 -p cbr -e 500 -c 1 -i 47 -a 1 -x {0.0 2.0 41 ------- null}
- -t 0.523 -s 0 -d 1 -p cbr -e 500 -c 1 -i 49 -a 1 -x {0.0 2.0 43 ------- null}
h -t 0.523 -s 0 -d 1 -p cbr -e 500 -c 1 -i 49 -a 1 -x {0.0 2.0 -1 ------- null}
r -t 0.523714285714286 -s 1 -d 2 -p cbr -e 500 -c 1 -i 41 -a 1 -x {0.0 2.0 35 ------- null}
- -t 0.525142857142858 -s 1 -d 2 -p cbr -e 500 -c 1 -i 43 -a 1 -x {0.0 2.0 37 ------- null}
h -t 0.525142857142858 -s 1 -d 2 -p cbr -e 500 -c 1 -i 43 -a 1 -x {0.0 2.0 -1 ------- null}
+ -t 0.53 -s 0 -d 1 -p cbr -e 1000 -c 1 -i 50 -a 1 -x {0.0 2.0 44 ------- null}
- -t 0.53 -s 0 -d 1 -p cbr -e 1000 -c 1 -i 50 -a 1 -x {0.0 2.0 44 ------- null}
h -t 0.53 -s 0 -d 1 -p cbr -e 1000 -c 1 -i 50 -a 1 -x {0.0 2.0 -1 ------- null}
+ -t 0.53 -s 0 -d 1 -p cbr -e 500 -c 1 -i 51 -a 1 -x {0.0 2.0 45 ------- null}
- -t 0.530857142857143 -s 1 -d 2 -p cbr -e 1000 -c 1 -i 44 -a 1 -x {0.0 2.0 38 ------- null}
h -t 0.530857142857143 -s 1 -d 2 -p cbr -e 1000 -c 1 -i 44 -a 1 -x {0.0 2.0 -1 ------- null}
r -t 0.533 -s 0 -d 1 -p cbr -e 1000 -c 1 -i 48 -a 1 -x {0.0 2.0 42 ------- null}
+ -t 0.533 -s 1 -d 2 -p cbr -e 1000 -c 1 -i 48 -a 1 -x {0.0 2.0 42 ------- null}
r -t 0.535142857142858 -s 1 -d 2 -p cbr -e 1000 -c 1 -i 42 -a 1 -x {0.0 2.0 36 ------- null}
r -t 0.537 -s 0 -d 1 -p cbr -e 500 -c 1 -i 49 -a 1 -x {0.0 2.0 43 ------- null}
+ -t 0.537 -s 1 -d 2 -p cbr -e 500 -c 1 -i 49 -a 1 -x {0.0 2.0 43 ------- null}
- -t 0.538 -s 0 -d 1 -p cbr -e 500 -c 1 -i 51 -a 1 -x {0.0 2.0 45 ------- null}
h -t 0.538 -s 0 -d 1 -p cbr -e 500 -c 1 -i 51 -a 1 -x {0.0 2.0 -1 ------- null}
r -t 0.540857142857143 -s 1 -d 2 -p cbr -e 500 -c 1 -i 43 -a 1 -x {0.0 2.0 37 ------- null}
- -t 0.542285714285715 -s 1 -d 2 -p cbr -e 1000 -c 1 -i 46 -a 1 -x {0.0 2.0 40 ------- null}
h -t 0.542285714285715 -s 1 -d 2 -p cbr -e 1000 -c 1 -i 46 -a 1 -x {0.0 2.0 -1 ------- null}
+ -t 0.545 -s 0 -d 1 -p cbr -e 1000 -c 1 -i 52 -a 1 -x {0.0 2.0 46 ------- null}
- -t 0.545 -s 0 -d 1 -p cbr -e 1000 -c 1 -i 52 -a 1 -x {0.0 2.0 46 ------- null}
h -t 0.545 -s 0 -d 1 -p cbr -e 1000 -c 1 -i 52 -a 1 -x {0.0 2.0 -1 ------- null}
+ -t 0.545 -s 0 -d 1 -p cbr -e 500 -c 1 -i 53 -a 1 -x {0.0 2.0 47 ------- null}
r -t 0.548 -s 0 -d 1 -p cbr -e 1000 -c 1 -i 50 -a 1 -x {0.0 2.0 44 ------- null}
+ -t 0.548 -s 1 -d 2 -p cbr -e 1000 -c 1 -i 50 -a 1 -x {0.0 2.0 44 ------- null}
r -t 0.552 -s 0 -d 1 -p cbr -e 500 -c 1 -i 51 -a 1 -x {0.0 2.0 45 ------- null}
+ -t 0.552 -s 1 -d 2 -p cbr -e 500 -c 1 -i 51 -a 1 -x {0.0 2.0 45 ------- null}
d -t 0.552 -s 1 -d 2 -p cbr -e 500 -c 1 -i 51 -a 1 -x {0.0 2.0 45 ------- null}
r -t 0.552285714285715 -s 1 -d 2 -p cbr -e 1000 -c 1 -i 44 -a 1 -x {0.0 2.0 38 ------- null}
- -t 0.553 -s 0 -d 1 -p cbr -e 500 -c 1 -i 53 -a 1 -x {0.0 2.0 47 ------- null}
h -t 0.553 -s 0 -d 1 -p cbr -e 500 -c 1 -i 53 -a 1 -x {0.0 2.0 -1 ------- null}
- -t 0.553714285714286 -s 1 -d 2 -p cbr -e 500 -c 1 -i 47 -a 1 -x {0.0 2.0 41 ------- null}
h -t 0.553714285714286 -s 1 -d 2 -p cbr -e 500 -c 1 -i 47 -a 1 -x {0.0 2.0 -1 ------- null}
- -t 0.559428571428572 -s 1 -d 2 -p cbr -e 1000 -c 1 -i 48 -a 1 -x {0.0 2.0 42 ------- null}
h -t 0.559428571428572 -s 1 -d 2 -p cbr -e 1000 -c 1 -i 48 -a 1 -x {0.0 2.0 -1 ------- null}
+ -t 0.56 -s 0 -d 1 -p cbr -e 1000 -c 1 -i 54 -a 1 -x {0.0 2.0 48 ------- null}
- -t 0.56 -s 0 -d 1 -p cbr -e 1000 -c 1 -i 54 -a 1 -x {0.0 2.0 48 ------- null}
h -t 0.56 -s 0 -d 1 -p cbr -e 1000 -c 1 -i 54 -a 1 -x {0.0 2.0 -1 ------- null}
+ -t 0.56 -s 0 -d 1 -p cbr -e 500 -c 1 -i 55 -a 1 -x {0.0 2.0 49 ------- null}
r -t 0.563 -s 0 -d 1 -p cbr -e 1000 -c 1 -i 52 -a 1 -x {0.0 2.0 46 ------- null}
+ -t 0.563 -s 1 -d 2 -p cbr -e 1000 -c 1 -i 52 -a 1 -x {0.0 2.0 46 ------- null}
r -t 0.563714285714286 -s 1 -d 2 -p cbr -e 1000 -c 1 -i 46 -a 1 -x {0.0 2.0 40 ------- null}
r -t 0.567 -s 0 -d 1 -p cbr -e 500 -c 1 -i 53 -a 1 -x {0.0 2.0 47 ------- null}
+ -t 0.567 -s 1 -d 2 -p cbr -e 500 -c 1 -i 53 -a 1 -x {0.0 2.0 47 ------- null}
- -t 0.568 -s 0 -d 1 -p cbr -e 500 -c 1 -i 55 -a 1 -x {0.0 2.0 49 ------- null}
h -t 0.568 -s 0 -d 1 -p cbr -e 500 -c 1 -i 55 -a 1 -x {0.0 2.0 -1 ------- null}
r -t 0.569428571428572 -s 1 -d 2 -p cbr -e 500 -c 1 -i 47 -a 1 -x {0.0 2.0 41 ------- null}
- -t 0.570857142857143 -s 1 -d 2 -p cbr -e 500 -c 1 -i 49 -a 1 -x {0.0 2.0 43 ------- null}
h -t 0.570857142857143 -s 1 -d 2 -p cbr -e 500 -c 1 -i 49 -a 1 -x {0.0 2.0 -1 ------- null}
+ -t 0.575 -s 0 -d 1 -p cbr -e 1000 -c 1 -i 56 -a 1 -x {0.0 2.0 50 ------- null}
- -t 0.575 -s 0 -d 1 -p cbr -e 1000 -c 1 -i 56 -a 1 -x {0.0 2.0 50 ------- null}
h -t 0.575 -s 0 -d 1 -p cbr -e 1000 -c 1 -i 56 -a 1 -x {0.0 2.0 -1 ------- null}
+ -t 0.575 -s 0 -d 1 -p cbr -e 500 -c 1 -i 57 -a 1 -x {0.0 2.0 51 ------- null}
- -t 0.576571428571429 -s 1 -d 2 -p cbr -e 1000 -c 1 -i 50 -a 1 -x {0.0 2.0 44 ------- null}
h -t 0.576571428571429 -s 1 -d 2 -p cbr -e 1000 -c 1 -i 50 -a 1 -x {0.0 2.0 -1 ------- null}
r -t 0.578 -s 0 -d 1 -p cbr -e 1000 -c 1 -i 54 -a 1 -x {0.0 2.0 48 ------- null}
+ -t 0.578 -s 1 -d 2 -p cbr -e 1000 -c 1 -i 54 -a 1 -x {0.0 2.0 48 ------- null}
r -t 0.580857142857143 -s 1 -d 2 -p cbr -e 1000 -c 1 -i 48 -a 1 -x {0.0 2.0 42 ------- null}
r -t 0.582 -s 0 -d 1 -p cbr -e 500 -c 1 -i 55 -a 1 -x {0.0 2.0 49 ------- null}
+ -t 0.582 -s 1 -d 2 -p cbr -e 500 -c 1 -i 55 -a 1 -x {0.0 2.0 49 ------- null}
- -t 0.583 -s 0 -d 1 -p cbr -e 500 -c 1 -i 57 -a 1 -x {0.0 2.0 51 ------- null}
h -t 0.583 -s 0 -d 1 -p cbr -e 500 -c 1 -i 57 -a 1 -x {0.0 2.0 -1 ------- null}
r -t 0.586571428571429 -s 1 -d 2 -p cbr -e 500 -c 1 -i 49 -a 1 -x {0.0 2.0 43 ------- null}
- -t 0.588000000000001 -s 1 -d 2 -p cbr -e 1000 -c 1 -i 52 -a 1 -x {0.0 2.0 46 ------- null}
h -t 0.588000000000001 -s 1 -d 2 -p cbr -e 1000 -c 1 -i 52 -a 1 -x {0.0 2.0 -1 ------- null}
+ -t 0.59 -s 0 -d 1 -p cbr -e 1000 -c 1 -i 58 -a 1 -x {0.0 2.0 52 ------- null}
- -t 0.59 -s 0 -d 1 -p cbr -e 1000 -c 1 -i 58 -a 1 -x {0.0 2.0 52 ------- null}
h -t 0.59 -s 0 -d 1 -p cbr -e 1000 -c 1 -i 58 -a 1 -x {0.0 2.0 -1 ------- null}
+ -t 0.59 -s 0 -d 1 -p cbr -e 500 -c 1 -i 59 -a 1 -x {0.0 2.0 53 ------- null}
r -t 0.593 -s 0 -d 1 -p cbr -e 1000 -c 1 -i 56 -a 1 -x {0.0 2.0 50 ------- null}
+ -t 0.593 -s 1 -d 2 -p cbr -e 1000 -c 1 -i 56 -a 1 -x {0.0 2.0 50 ------- null}
r -t 0.597 -s 0 -d 1 -p cbr -e 500 -c 1 -i 57 -a 1 -x {0.0 2.0 51 ------- null}
+ -t 0.597 -s 1 -d 2 -p cbr -e 500 -c 1 -i 57 -a 1 -x {0.0 2.0 51 ------- null}
d -t 0.597 -s 1 -d 2 -p cbr -e 500 -c 1 -i 57 -a 1 -x {0.0 2.0 51 ------- null}
- -t 0.598 -s 0 -d 1 -p cbr -e 500 -c 1 -i 59 -a 1 -x {0.0 2.0 53 ------- null}
h -t 0.598 -s 0 -d 1 -p cbr -e 500 -c 1 -i 59 -a 1 -x {0.0 2.0 -1 ------- null}
r -t 0.598000000000001 -s 1 -d 2 -p cbr -e 1000 -c 1 -i 50 -a 1 -x {0.0 2.0 44 ------- null}
- -t 0.599428571428572 -s 1 -d 2 -p cbr -e 500 -c 1 -i 53 -a 1 -x {0.0 2.0 47 ------- null}
h -t 0.599428571428572 -s 1 -d 2 -p cbr -e 500 -c 1 -i 53 -a 1 -x {0.0 2.0 -1 ------- null}
+ -t 0.605 -s 0 -d 1 -p cbr -e 1000 -c 1 -i 60 -a 1 -x {0.0 2.0 54 ------- null}
- -t 0.605 -s 0 -d 1 -p cbr -e 1000 -c 1 -i 60 -a 1 -x {0.0 2.0 54 ------- null}
h -t 0.605 -s 0 -d 1 -p cbr -e 1000 -c 1 -i 60 -a 1 -x {0.0 2.0 -1 ------- null}
+ -t 0.605 -s 0 -d 1 -p cbr -e 500 -c 1 -i 61 -a 1 -x {0.0 2.0 55 ------- null}
- -t 0.605142857142858 -s 1 -d 2 -p cbr -e 1000 -c 1 -i 54 -a 1 -x {0.0 2.0 48 ------- null}
h -t 0.605142857142858 -s 1 -d 2 -p cbr -e 1000 -c 1 -i 54 -a 1 -x {0.0 2.0 -1 ------- null}
r -t 0.608 -s 0 -d 1 -p cbr -e 1000 -c 1 -i 58 -a 1 -x {0.0 2.0 52 ------- null}
+ -t 0.608 -s 1 -d 2 -p cbr -e 1000 -c 1 -i 58 -a 1 -x {0.0 2.0 52 ------- null}
r -t 0.609428571428572 -s 1 -d 2 -p cbr -e 1000 -c 1 -i 52 -a 1 -x {0.0 2.0 46 ------- null}
r -t 0.612 -s 0 -d 1 -p cbr -e 500 -c 1 -i 59 -a 1 -x {0.0 2.0 53 ------- null}
+ -t 0.612 -s 1 -d 2 -p cbr -e 500 -c 1 -i 59 -a 1 -x {0.0 2.0 53 ------- null}
- -t 0.613 -s 0 -d 1 -p cbr -e 500 -c 1 -i 61 -a 1 -x {0.0 2.0 55 ------- null}
h -t 0.613 -s 0 -d 1 -p cbr -e 500 -c 1 -i 61 -a 1 -x {0.0 2.0 -1 ------- null}
r -t 0.615142857142858 -s 1 -d 2 -p cbr -e 500 -c 1 -i 53 -a 1 -x {0.0 2.0 47 ------- null}
- -t 0.616571428571429 -s 1 -d 2 -p cbr -e 500 -c 1 -i 55 -a 1 -x {0.0 2.0 49 ------- null}
h -t 0.616571428571429 -s 1 -d 2 -p cbr -e 500 -c 1 -i 55 -a 1 -x {0.0 2.0 -1 ------- null}