+ 0.00017 0 1 rtProtoDV 3 ------- 0 0.2 1.1 -1 0
- 0.00017 0 1 rtProtoDV 3 ------- 0 0.2 1.1 -1 0
+ 0.007102 2 1 rtProtoDV 3 ------- 0 2.2 1.1 -1 1
- 0.007102 2 1 rtProtoDV 3 ------- 0 2.2 1.1 -1 1
r 0.010194 0 1 rtProtoDV 3 ------- 0 0.2 1.1 -1 0
r 0.017137 2 1 rtProtoDV 3 ------- 0 2.2 1.1 -1 1
+ 0.27794 1 0 rtProtoDV 3 ------- 0 1.1 0.2 -1 14
- 0.27794 1 0 rtProtoDV 3 ------- 0 1.1 0.2 -1 14
+ 0.27794 1 2 rtProtoDV 3 ------- 0 1.1 2.2 -1 15
- 0.27794 1 2 rtProtoDV 3 ------- 0 1.1 2.2 -1 15
r 0.287964 1 0 rtProtoDV 3 ------- 0 1.1 0.2 -1 14
+ 0.287964 0 1 rtProtoDV 3 ------- 0 0.2 1.1 -1 16
- 0.287964 0 1 rtProtoDV 3 ------- 0 0.2 1.1 -1 16
r 0.287975 1 2 rtProtoDV 3 ------- 0 1.1 2.2 -1 15
+ 0.287975 2 1 rtProtoDV 3 ------- 0 2.2 1.1 -1 17
- 0.287975 2 1 rtProtoDV 3 ------- 0 2.2 1.1 -1 17
+ 0.29 0 1 cbr 1000 ------- 1 0.0 2.0 12 18
- 0.29 0 1 cbr 1000 ------- 1 0.0 2.0 12 18
+ 0.29 0 1 cbr 500 ------- 1 0.0 2.0 13 19
r 0.297988 0 1 rtProtoDV 3 ------- 0 0.2 1.1 -1 16
- 0.298 0 1 cbr 500 ------- 1 0.0 2.0 13 19
r 0.298009 2 1 rtProtoDV 3 ------- 0 2.2 1.1 -1 17
+ 0.305 0 1 cbr 1000 ------- 1 0.0 2.0 14 20
- 0.305 0 1 cbr 1000 ------- 1 0.0 2.0 14 20
+ 0.305 0 1 cbr 500 ------- 1 0.0 2.0 15 21
r 0.308 0 1 cbr 1000 ------- 1 0.0 2.0 12 18
+ 0.308 1 2 cbr 1000 ------- 1 0.0 2.0 12 18
- 0.308 1 2 cbr 1000 ------- 1 0.0 2.0 12 18
r 0.312 0 1 cbr 500 ------- 1 0.0 2.0 13 19
+ 0.312 1 2 cbr 500 ------- 1 0.0 2.0 13 19
- 0.313 0 1 cbr 500 ------- 1 0.0 2.0 15 21
- 0.319429 1 2 cbr 500 ------- 1 0.0 2.0 13 19
+ 0.32 0 1 cbr 1000 ------- 1 0.0 2.0 16 22
- 0.32 0 1 cbr 1000 ------- 1 0.0 2.0 16 22
+ 0.32 0 1 cbr 500 ------- 1 0.0 2.0 17 23
r 0.323 0 1 cbr 1000 ------- 1 0.0 2.0 14 20
+ 0.323 1 2 cbr 1000 ------- 1 0.0 2.0 14 20
- 0.325143 1 2 cbr 1000 ------- 1 0.0 2.0 14 20
r 0.327 0 1 cbr 500 ------- 1 0.0 2.0 15 21
+ 0.327 1 2 cbr 500 ------- 1 0.0 2.0 15 21
- 0.328 0 1 cbr 500 ------- 1 0.0 2.0 17 23
r 0.329429 1 2 cbr 1000 ------- 1 0.0 2.0 12 18
+ 0.335 0 1 cbr 1000 ------- 1 0.0 2.0 18 24
- 0.335 0 1 cbr 1000 ------- 1 0.0 2.0 18 24
+ 0.335 0 1 cbr 500 ------- 1 0.0 2.0 19 25
r 0.335143 1 2 cbr 500 ------- 1 0.0 2.0 13 19
- 0.336571 1 2 cbr 500 ------- 1 0.0 2.0 15 21
r 0.338 0 1 cbr 1000 ------- 1 0.0 2.0 16 22
+ 0.338 1 2 cbr 1000 ------- 1 0.0 2.0 16 22
r 0.342 0 1 cbr 500 ------- 1 0.0 2.0 17 23
+ 0.342 1 2 cbr 500 ------- 1 0.0 2.0 17 23
- 0.342286 1 2 cbr 1000 ------- 1 0.0 2.0 16 22
- 0.343 0 1 cbr 500 ------- 1 0.0 2.0 19 25
r 0.346571 1 2 cbr 1000 ------- 1 0.0 2.0 14 20
+ 0.35 0 1 cbr 1000 ------- 1 0.0 2.0 20 26
- 0.35 0 1 cbr 1000 ------- 1 0.0 2.0 20 26
+ 0.35 0 1 cbr 500 ------- 1 0.0 2.0 21 27
r 0.352286 1 2 cbr 500 ------- 1 0.0 2.0 15 21
r 0.353 0 1 cbr 1000 ------- 1 0.0 2.0 18 24
+ 0.353 1 2 cbr 1000 ------- 1 0.0 2.0 18 24
- 0.353714 1 2 cbr 500 ------- 1 0.0 2.0 17 23
r 0.357 0 1 cbr 500 ------- 1 0.0 2.0 19 25
+ 0.357 1 2 cbr 500 ------- 1 0.0 2.0 19 25
- 0.358 0 1 cbr 500 ------- 1 0.0 2.0 21 27
- 0.359429 1 2 cbr 1000 ------- 1 0.0 2.0 18 24
r 0.363714 1 2 cbr 1000 ------- 1 0.0 2.0 16 22
+ 0.365 0 1 cbr 1000 ------- 1 0.0 2.0 22 28
- 0.365 0 1 cbr 1000 ------- 1 0.0 2.0 22 28
+ 0.365 0 1 cbr 500 ------- 1 0.0 2.0 23 29
r 0.368 0 1 cbr 1000 ------- 1 0.0 2.0 20 26
+ 0.368 1 2 cbr 1000 ------- 1 0.0 2.0 20 26
r 0.369429 1 2 cbr 500 ------- 1 0.0 2.0 17 23
- 0.370857 1 2 cbr 500 ------- 1 0.0 2.0 19 25
r 0.372 0 1 cbr 500 ------- 1 0.0 2.0 21 27
+ 0.372 1 2 cbr 500 ------- 1 0.0 2.0 21 27
- 0.373 0 1 cbr 500 ------- 1 0.0 2.0 23 29
- 0.376571 1 2 cbr 1000 ------- 1 0.0 2.0 20 26
+ 0.38 0 1 cbr 1000 ------- 1 0.0 2.0 24 30
- 0.38 0 1 cbr 1000 ------- 1 0.0 2.0 24 30
+ 0.38 0 1 cbr 500 ------- 1 0.0 2.0 25 31
r 0.380857 1 2 cbr 1000 ------- 1 0.0 2.0 18 24
r 0.383 0 1 cbr 1000 ------- 1 0.0 2.0 22 28
+ 0.383 1 2 cbr 1000 ------- 1 0.0 2.0 22 28
r 0.386571 1 2 cbr 500 ------- 1 0.0 2.0 19 25
r 0.387 0 1 cbr 500 ------- 1 0.0 2.0 23 29
+ 0.387 1 2 cbr 500 ------- 1 0.0 2.0 23 29
- 0.388 0 1 cbr 500 ------- 1 0.0 2.0 25 31
- 0.388 1 2 cbr 500 ------- 1 0.0 2.0 21 27
- 0.393714 1 2 cbr 1000 ------- 1 0.0 2.0 22 28
+ 0.395 0 1 cbr 1000 ------- 1 0.0 2.0 26 32
- 0.395 0 1 cbr 1000 ------- 1 0.0 2.0 26 32
+ 0.395 0 1 cbr 500 ------- 1 0.0 2.0 27 33
r 0.398 0 1 cbr 1000 ------- 1 0.0 2.0 24 30
+ 0.398 1 2 cbr 1000 ------- 1 0.0 2.0 24 30
r 0.398 1 2 cbr 1000 ------- 1 0.0 2.0 20 26
r 0.402 0 1 cbr 500 ------- 1 0.0 2.0 25 31
+ 0.402 1 2 cbr 500 ------- 1 0.0 2.0 25 31
- 0.403 0 1 cbr 500 ------- 1 0.0 2.0 27 33
r 0.403714 1 2 cbr 500 ------- 1 0.0 2.0 21 27
- 0.405143 1 2 cbr 500 ------- 1 0.0 2.0 23 29
+ 0.41 0 1 cbr 1000 ------- 1 0.0 2.0 28 34
- 0.41 0 1 cbr 1000 ------- 1 0.0 2.0 28 34
+ 0.41 0 1 cbr 500 ------- 1 0.0 2.0 29 35
- 0.410857 1 2 cbr 1000 ------- 1 0.0 2.0 24 30
r 0.413 0 1 cbr 1000 ------- 1 0.0 2.0 26 32
+ 0.413 1 2 cbr 1000 ------- 1 0.0 2.0 26 32
r 0.415143 1 2 cbr 1000 ------- 1 0.0 2.0 22 28
r 0.417 0 1 cbr 500 ------- 1 0.0 2.0 27 33
+ 0.417 1 2 cbr 500 ------- 1 0.0 2.0 27 33
- 0.418 0 1 cbr 500 ------- 1 0.0 2.0 29 35
r 0.420857 1 2 cbr 500 ------- 1 0.0 2.0 23 29
- 0.422286 1 2 cbr 500 ------- 1 0.0 2.0 25 31
+ 0.425 0 1 cbr 1000 ------- 1 0.0 2.0 30 36
- 0.425 0 1 cbr 1000 ------- 1 0.0 2.0 30 36
+ 0.425 0 1 cbr 500 ------- 1 0.0 2.0 31 37
r 0.428 0 1 cbr 1000 ------- 1 0.0 2.0 28 34
+ 0.428 1 2 cbr 1000 ------- 1 0.0 2.0 28 34
- 0.428 1 2 cbr 1000 ------- 1 0.0 2.0 26 32
r 0.432 0 1 cbr 500 ------- 1 0.0 2.0 29 35
+ 0.432 1 2 cbr 500 ------- 1 0.0 2.0 29 35
r 0.432286 1 2 cbr 1000 ------- 1 0.0 2.0 24 30
- 0.433 0 1 cbr 500 ------- 1 0.0 2.0 31 37
r 0.438 1 2 cbr 500 ------- 1 0.0 2.0 25 31
- 0.439429 1 2 cbr 500 ------- 1 0.0 2.0 27 33
+ 0.44 0 1 cbr 1000 ------- 1 0.0 2.0 32 38
- 0.44 0 1 cbr 1000 ------- 1 0.0 2.0 32 38
+ 0.44 0 1 cbr 500 ------- 1 0.0 2.0 33 39
r 0.443 0 1 cbr 1000 ------- 1 0.0 2.0 30 36
+ 0.443 1 2 cbr 1000 ------- 1 0.0 2.0 30 36
- 0.445143 1 2 cbr 1000 ------- 1 0.0 2.0 28 34
r 0.447 0 1 cbr 500 ------- 1 0.0 2.0 31 37
+ 0.447 1 2 cbr 500 ------- 1 0.0 2.0 31 37
- 0.448 0 1 cbr 500 ------- 1 0.0 2.0 33 39
r 0.449429 1 2 cbr 1000 ------- 1 0.0 2.0 26 32
+ 0.455 0 1 cbr 1000 ------- 1 0.0 2.0 34 40
- 0.455 0 1 cbr 1000 ------- 1 0.0 2.0 34 40
+ 0.455 0 1 cbr 500 ------- 1 0.0 2.0 35 41
r 0.455143 1 2 cbr 500 ------- 1 0.0 2.0 27 33
- 0.456571 1 2 cbr 500 ------- 1 0.0 2.0 29 35
r 0.458 0 1 cbr 1000 ------- 1 0.0 2.0 32 38
+ 0.458 1 2 cbr 1000 ------- 1 0.0 2.0 32 38
r 0.462 0 1 cbr 500 ------- 1 0.0 2.0 33 39
+ 0.462 1 2 cbr 500 ------- 1 0.0 2.0 33 39
- 0.462286 1 2 cbr 1000 ------- 1 0.0 2.0 30 36
- 0.463 0 1 cbr 500 ------- 1 0.0 2.0 35 41
r 0.466571 1 2 cbr 1000 ------- 1 0.0 2.0 28 34
+ 0.47 0 1 cbr 1000 ------- 1 0.0 2.0 36 42
- 0.47 0 1 cbr 1000 ------- 1 0.0 2.0 36 42
+ 0.47 0 1 cbr 500 ------- 1 0.0 2.0 37 43
r 0.472286 1 2 cbr 500 ------- 1 0.0 2.0 29 35
r 0.473 0 1 cbr 1000 ------- 1 0.0 2.0 34 40
+ 0.473 1 2 cbr 1000 ------- 1 0.0 2.0 34 40
- 0.473714 1 2 cbr 500 ------- 1 0.0 2.0 31 37
r 0.477 0 1 cbr 500 ------- 1 0.0 2.0 35 41
+ 0.477 1 2 cbr 500 ------- 1 0.0 2.0 35 41
- 0.478 0 1 cbr 500 ------- 1 0.0 2.0 37 43
- 0.479429 1 2 cbr 1000 ------- 1 0.0 2.0 32 38
r 0.483714 1 2 cbr 1000 ------- 1 0.0 2.0 30 36
+ 0.485 0 1 cbr 1000 ------- 1 0.0 2.0 38 44
- 0.485 0 1 cbr 1000 ------- 1 0.0 2.0 38 44
+ 0.485 0 1 cbr 500 ------- 1 0.0 2.0 39 45
r 0.488 0 1 cbr 1000 ------- 1 0.0 2.0 36 42
+ 0.488 1 2 cbr 1000 ------- 1 0.0 2.0 36 42
r 0.489429 1 2 cbr 500 ------- 1 0.0 2.0 31 37
- 0.490857 1 2 cbr 500 ------- 1 0.0 2.0 33 39
r 0.492 0 1 cbr 500 ------- 1 0.0 2.0 37 43
+ 0.492 1 2 cbr 500 ------- 1 0.0 2.0 37 43
- 0.493 0 1 cbr 500 ------- 1 0.0 2.0 39 45
- 0.496571 1 2 cbr 1000 ------- 1 0.0 2.0 34 40
+ 0.5 0 1 cbr 1000 ------- 1 0.0 2.0 40 46
- 0.5 0 1 cbr 1000 ------- 1 0.0 2.0 40 46
+ 0.5 0 1 cbr 500 ------- 1 0.0 2.0 41 47
r 0.500857 1 2 cbr 1000 ------- 1 0.0 2.0 32 38
r 0.503 0 1 cbr 1000 ------- 1 0.0 2.0 38 44
+ 0.503 1 2 cbr 1000 ------- 1 0.0 2.0 38 44
r 0.506571 1 2 cbr 500 ------- 1 0.0 2.0 33 39
r 0.507 0 1 cbr 500 ------- 1 0.0 2.0 39 45
+ 0.507 1 2 cbr 500 ------- 1 0.0 2.0 39 45
d 0.507 1 2 cbr 500 ------- 1 0.0 2.0 39 45
- 0.508 0 1 cbr 500 ------- 1 0.0 2.0 41 47
- 0.508 1 2 cbr 500 ------- 1 0.0 2.0 35 41
- 0.513714 1 2 cbr 1000 ------- 1 0.0 2.0 36 42
+ 0.515 0 1 cbr 1000 ------- 1 0.0 2.0 42 48
- 0.515 0 1 cbr 1000 ------- 1 0.0 2.0 42 48
+ 0.515 0 1 cbr 500 ------- 1 0.0 2.0 43 49
r 0.518 0 1 cbr 1000 ------- 1 0.0 2.0 40 46
+ 0.518 1 2 cbr 1000 ------- 1 0.0 2.0 40 46
r 0.518 1 2 cbr 1000 ------- 1 0.0 2.0 34 40
r 0.522 0 1 cbr 500 ------- 1 0.0 2.0 41 47
+ 0.522 1 2 cbr 500 ------- 1 0.0 2.0 41 47
- 0.523 0 1 cbr 500 ------- 1 0.0 2.0 43 49
r 0.523714 1 2 cbr 500 ------- 1 0.0 2.0 35 41
- 0.525143 1 2 cbr 500 ------- 1 0.0 2.0 37 43
+ 0.53 0 1 cbr 1000 ------- 1 0.0 2.0 44 50
- 0.53 0 1 cbr 1000 ------- 1 0.0 2.0 44 50
+ 0.53 0 1 cbr 500 ------- 1 0.0 2.0 45 51
- 0.530857 1 2 cbr 1000 ------- 1 0.0 2.0 38 44
r 0.533 0 1 cbr 1000 ------- 1 0.0 2.0 42 48
+ 0.533 1 2 cbr 1000 ------- 1 0.0 2.0 42 48
r 0.535143 1 2 cbr 1000 ------- 1 0.0 2.0 36 42
r 0.537 0 1 cbr 500 ------- 1 0.0 2.0 43 49
+ 0.537 1 2 cbr 500 ------- 1 0.0 2.0 43 49
- 0.538 0 1 cbr 500 ------- 1 0.0 2.0 45 51
r 0.540857 1 2 cbr 500 ------- 1 0.0 2.0 37 43
- 0.542286 1 2 cbr 1000 ------- 1 0.0 2.0 40 46
+ 0.545 0 1 cbr 1000 ------- 1 0.0 2.0 46 52
- 0.545 0 1 cbr 1000 ------- 1 0.0 2.0 46 52
+ 0.545 0 1 cbr 500 ------- 1 0.0 2.0 47 53
r 0.548 0 1 cbr 1000 ------- 1 0.0 2.0 44 50
+ 0.548 1 2 cbr 1000 ------- 1 0.0 2.0 44 50
r 0.552 0 1 cbr 500 ------- 1 0.0 2.0 45 51
+ 0.552 1 2 cbr 500 ------- 1 0.0 2.0 45 51
d 0.552 1 2 cbr 500 ------- 1 0.0 2.0 45 51
r 0.552286 1 2 cbr 1000 ------- 1 0.0 2.0 38 44
- 0.553 0 1 cbr 500 ------- 1 0.0 2.0 47 53
- 0.553714 1 2 cbr 500 ------- 1 0.0 2.0 41 47
- 0.559429 1 2 cbr 1000 ------- 1 0.0 2.0 42 48
+ 0.56 0 1 cbr 1000 ------- 1 0.0 2.0 48 54
- 0.56 0 1 cbr 1000 ------- 1 0.0 2.0 48 54
+ 0.56 0 1 cbr 500 ------- 1 0.0 2.0 49 55
r 0.563 0 1 cbr 1000 ------- 1 0.0 2.0 46 52
+ 0.563 1 2 cbr 1000 ------- 1 0.0 2.0 46 52
r 0.563714 1 2 cbr 1000 ------- 1 0.0 2.0 40 46
r 0.567 0 1 cbr 500 ------- 1 0.0 2.0 47 53
+ 0.567 1 2 cbr 500 ------- 1 0.0 2.0 47 53
- 0.568 0 1 cbr 500 ------- 1 0.0 2.0 49 55
r 0.569429 1 2 cbr 500 ------- 1 0.0 2.0 41 47
- 0.570857 1 2 cbr 500 ------- 1 0.0 2.0 43 49
+ 0.575 0 1 cbr 1000 ------- 1 0.0 2.0 50 56
- 0.575 0 1 cbr 1000 ------- 1 0.0 2.0 50 56
+ 0.575 0 1 cbr 500 ------- 1 0.0 2.0 51 57
- 0.576571 1 2 cbr 1000 ------- 1 0.0 2.0 44 50
r 0.578 0 1 cbr 1000 ------- 1 0.0 2.0 48 54
+ 0.578 1 2 cbr 1000 ------- 1 0.0 2.0 48 54
r 0.580857 1 2 cbr 1000 ------- 1 0.0 2.0 42 48
r 0.582 0 1 cbr 500 ------- 1 0.0 2.0 49 55
+ 0.582 1 2 cbr 500 ------- 1 0.0 2.0 49 55
- 0.583 0 1 cbr 500 ------- 1 0.0 2.0 51 57
r 0.586571 1 2 cbr 500 ------- 1 0.0 2.0 43 49
- 0.588 1 2 cbr 1000 ------- 1 0.0 2.0 46 52
+ 0.59 0 1 cbr 1000 ------- 1 0.0 2.0 52 58
- 0.59 0 1 cbr 1000 ------- 1 0.0 2.0 52 58
+ 0.59 0 1 cbr 500 ------- 1 0.0 2.0 53 59
r 0.593 0 1 cbr 1000 ------- 1 0.0 2.0 50 56
+ 0.593 1 2 cbr 1000 ------- 1 0.0 2.0 50 56
r 0.597 0 1 cbr 500 ------- 1 0.0 2.0 51 57
+ 0.597 1 2 cbr 500 ------- 1 0.0 2.0 51 57
d 0.597 1 2 cbr 500 ------- 1 0.0 2.0 51 57
- 0.598 0 1 cbr 500 ------- 1 0.0 2.0 53 59
r 0.598 1 2 cbr 1000 ------- 1 0.0 2.0 44 50
- 0.599429 1 2 cbr 500 ------- 1 0.0 2.0 47 53
+ 0.605 0 1 cbr 1000 ------- 1 0.0 2.0 54 60
- 0.605 0 1 cbr 1000 ------- 1 0.0 2.0 54 60
+ 0.605 0 1 cbr 500 ------- 1 0.0 2.0 55 61
- 0.605143 1 2 cbr 1000 ------- 1 0.0 2.0 48 54
r 0.608 0 1 cbr 1000 ------- 1 0.0 2.0 52 58
+ 0.608 1 2 cbr 1000 ------- 1 0.0 2.0 52 58
r 0.609429 1 2 cbr 1000 ------- 1 0.0 2.0 46 52
r 0.612 0 1 cbr 500 ------- 1 0.0 2.0 53 59
+ 0.612 1 2 cbr 500 ------- 1 0.0 2.0 53 59
- 0.613 0 1 cbr 500 ------- 1 0.0 2.0 55 61
r 0.615143 1 2 cbr 500 ------- 1 0.0 2.0 47 53
- 0.616571 1 2 cbr 500 ------- 1 0.0 2.0 49 55
+ 0.62 0 1 cbr 1000 ------- 1 0.0 2.0 56 62
- 0.62 0 1 cbr 1000 ------- 1 0.0 2.0 56 62
+ 0.62 0 1 cbr 500 ------- 1 0.0 2.0 57 63
- 0.622286 1 2 cbr 1000 ------- 1 0.0 2.0 50 56
r 0.623 0 1 cbr 1000 ------- 1 0.0 2.0 54 60
+ 0.623 1 2 cbr 1000 ------- 1 0.0 2.0 54 60
r 0.626571 1 2 cbr 1000 ------- 1 0.0 2.0 48 54
r 0.627 0 1 cbr 500 ------- 1 0.0 2.0 55 61
+ 0.627 1 2 cbr 500 ------- 1 0.0 2.0 55 61
- 0.628 0 1 cbr 500 ------- 1 0.0 2.0 57 63
r 0.632286 1 2 cbr 500 ------- 1 0.0 2.0 49 55
- 0.633714 1 2 cbr 1000 ------- 1 0.0 2.0 52 58
+ 0.635 0 1 cbr 1000 ------- 1 0.0 2.0 58 64
- 0.635 0 1 cbr 1000 ------- 1 0.0 2.0 58 64
+ 0.635 0 1 cbr 500 ------- 1 0.0 2.0 59 65
r 0.638 0 1 cbr 1000 ------- 1 0.0 2.0 56 62
+ 0.638 1 2 cbr 1000 ------- 1 0.0 2.0 56 62
r 0.642 0 1 cbr 500 ------- 1 0.0 2.0 57 63
+ 0.642 1 2 cbr 500 ------- 1 0.0 2.0 57 63
d 0.642 1 2 cbr 500 ------- 1 0.0 2.0 57 63
- 0.643 0 1 cbr 500 ------- 1 0.0 2.0 59 65
r 0.643714 1 2 cbr 1000 ------- 1 0.0 2.0 50 56
- 0.645143 1 2 cbr 500 ------- 1 0.0 2.0 53 59
+ 0.65 0 1 cbr 1000 ------- 1 0.0 2.0 60 66
- 0.65 0 1 cbr 1000 ------- 1 0.0 2.0 60 66
+ 0.65 0 1 cbr 500 ------- 1 0.0 2.0 61 67
- 0.650857 1 2 cbr 1000 ------- 1 0.0 2.0 54 60
r 0.653 0 1 cbr 1000 ------- 1 0.0 2.0 58 64
+ 0.653 1 2 cbr 1000 ------- 1 0.0 2.0 58 64
r 0.655143 1 2 cbr 1000 ------- 1 0.0 2.0 52 58
r 0.657 0 1 cbr 500 ------- 1 0.0 2.0 59 65
+ 0.657 1 2 cbr 500 ------- 1 0.0 2.0 59 65
- 0.658 0 1 cbr 500 ------- 1 0.0 2.0 61 67
r 0.660857 1 2 cbr 500 ------- 1 0.0 2.0 53 59
- 0.662286 1 2 cbr 500 ------- 1 0.0 2.0 55 61
+ 0.665 0 1 cbr 1000 ------- 1 0.0 2.0 62 68
- 0.665 0 1 cbr 1000 ------- 1 0.0 2.0 62 68
+ 0.665 0 1 cbr 500 ------- 1 0.0 2.0 63 69
r 0.668 0 1 cbr 1000 ------- 1 0.0 2.0 60 66
+ 0.668 1 2 cbr 1000 ------- 1 0.0 2.0 60 66
- 0.668 1 2 cbr 1000 ------- 1 0.0 2.0 56 62
r 0.672 0 1 cbr 500 ------- 1 0.0 2.0 61 67
+ 0.672 1 2 cbr 500 ------- 1 0.0 2.0 61 67
r 0.672286 1 2 cbr 1000 ------- 1 0.0 2.0 54 60
- 0.673 0 1 cbr 500 ------- 1 0.0 2.0 63 69
r 0.678 1 2 cbr 500 ------- 1 0.0 2.0 55 61
- 0.679429 1 2 cbr 1000 ------- 1 0.0 2.0 58 64
+ 0.68 0 1 cbr 1000 ------- 1 0.0 2.0 64 70
- 0.68 0 1 cbr 1000 ------- 1 0.0 2.0 64 70
+ 0.68 0 1 cbr 500 ------- 1 0.0 2.0 65 71
r 0.683 0 1 cbr 1000 ------- 1 0.0 2.0 62 68
+ 0.683 1 2 cbr 1000 ------- 1 0.0 2.0 62 68
r 0.687 0 1 cbr 500 ------- 1 0.0 2.0 63 69
+ 0.687 1 2 cbr 500 ------- 1 0.0 2.0 63 69
d 0.687 1 2 cbr 500 ------- 1 0.0 2.0 63 69
- 0.688 0 1 cbr 500 ------- 1 0.0 2.0 65 71
r 0.689429 1 2 cbr 1000 ------- 1 0.0 2.0 56 62
- 0.690857 1 2 cbr 500 ------- 1 0.0 2.0 59 65
+ 0.695 0 1 cbr 1000 ------- 1 0.0 2.0 66 72
- 0.695 0 1 cbr 1000 ------- 1 0.0 2.0 66 72
+ 0.695 0 1 cbr 500 ------- 1 0.0 2.0 67 73
- 0.696571 1 2 cbr 1000 ------- 1 0.0 2.0 60 66
r 0.698 0 1 cbr 1000 ------- 1 0.0 2.0 64 70
+ 0.698 1 2 cbr 1000 ------- 1 0.0 2.0 64 70
r 0.700857 1 2 cbr 1000 ------- 1 0.0 2.0 58 64
r 0.702 0 1 cbr 500 ------- 1 0.0 2.0 65 71
+ 0.702 1 2 cbr 500 ------- 1 0.0 2.0 65 71
- 0.703 0 1 cbr 500 ------- 1 0.0 2.0 67 73
r 0.706571 1 2 cbr 500 ------- 1 0.0 2.0 59 65
- 0.708 1 2 cbr 500 ------- 1 0.0 2.0 61 67
+ 0.71 0 1 cbr 1000 ------- 1 0.0 2.0 68 74
- 0.71 0 1 cbr 1000 ------- 1 0.0 2.0 68 74
+ 0.71 0 1 cbr 500 ------- 1 0.0 2.0 69 75
r 0.713 0 1 cbr 1000 ------- 1 0.0 2.0 66 72
+ 0.713 1 2 cbr 1000 ------- 1 0.0 2.0 66 72
- 0.713714 1 2 cbr 1000 ------- 1 0.0 2.0 62 68
r 0.717 0 1 cbr 500 ------- 1 0.0 2.0 67 73
+ 0.717 1 2 cbr 500 ------- 1 0.0 2.0 67 73
- 0.718 0 1 cbr 500 ------- 1 0.0 2.0 69 75
r 0.718 1 2 cbr 1000 ------- 1 0.0 2.0 60 66
r 0.723714 1 2 cbr 500 ------- 1 0.0 2.0 61 67
+ 0.725 0 1 cbr 1000 ------- 1 0.0 2.0 70 76
- 0.725 0 1 cbr 1000 ------- 1 0.0 2.0 70 76
+ 0.725 0 1 cbr 500 ------- 1 0.0 2.0 71 77
- 0.725143 1 2 cbr 1000 ------- 1 0.0 2.0 64 70
r 0.728 0 1 cbr 1000 ------- 1 0.0 2.0 68 74
+ 0.728 1 2 cbr 1000 ------- 1 0.0 2.0 68 74
r 0.732 0 1 cbr 500 ------- 1 0.0 2.0 69 75
+ 0.732 1 2 cbr 500 ------- 1 0.0 2.0 69 75
d 0.732 1 2 cbr 500 ------- 1 0.0 2.0 69 75
- 0.733 0 1 cbr 500 ------- 1 0.0 2.0 71 77
r 0.735143 1 2 cbr 1000 ------- 1 0.0 2.0 62 68
- 0.736571 1 2 cbr 500 ------- 1 0.0 2.0 65 71
+ 0.74 0 1 cbr 1000 ------- 1 0.0 2.0 72 78
- 0.74 0 1 cbr 1000 ------- 1 0.0 2.0 72 78
+ 0.74 0 1 cbr 500 ------- 1 0.0 2.0 73 79
- 0.742286 1 2 cbr 1000 ------- 1 0.0 2.0 66 72
r 0.743 0 1 cbr 1000 ------- 1 0.0 2.0 70 76
+ 0.743 1 2 cbr 1000 ------- 1 0.0 2.0 70 76
r 0.746571 1 2 cbr 1000 ------- 1 0.0 2.0 64 70
r 0.747 0 1 cbr 500 ------- 1 0.0 2.0 71 77
+ 0.747 1 2 cbr 500 ------- 1 0.0 2.0 71 77
- 0.748 0 1 cbr 500 ------- 1 0.0 2.0 73 79
r 0.752286 1 2 cbr 500 ------- 1 0.0 2.0 65 71
- 0.753714 1 2 cbr 500 ------- 1 0.0 2.0 67 73
+ 0.755 0 1 cbr 1000 ------- 1 0.0 2.0 74 80
- 0.755 0 1 cbr 1000 ------- 1 0.0 2.0 74 80
+ 0.755 0 1 cbr 500 ------- 1 0.0 2.0 75 81
r 0.758 0 1 cbr 1000 ------- 1 0.0 2.0 72 78
+ 0.758 1 2 cbr 1000 ------- 1 0.0 2.0 72 78
- 0.759429 1 2 cbr 1000 ------- 1 0.0 2.0 68 74
r 0.762 0 1 cbr 500 ------- 1 0.0 2.0 73 79
+ 0.762 1 2 cbr 500 ------- 1 0.0 2.0 73 79
- 0.763 0 1 cbr 500 ------- 1 0.0 2.0 75 81
r 0.763714 1 2 cbr 1000 ------- 1 0.0 2.0 66 72
r 0.769429 1 2 cbr 500 ------- 1 0.0 2.0 67 73
+ 0.77 0 1 cbr 1000 ------- 1 0.0 2.0 76 82
- 0.77 0 1 cbr 1000 ------- 1 0.0 2.0 76 82
+ 0.77 0 1 cbr 500 ------- 1 0.0 2.0 77 83
- 0.770857 1 2 cbr 1000 ------- 1 0.0 2.0 70 76
r 0.773 0 1 cbr 1000 ------- 1 0.0 2.0 74 80
+ 0.773 1 2 cbr 1000 ------- 1 0.0 2.0 74 80
r 0.777 0 1 cbr 500 ------- 1 0.0 2.0 75 81
+ 0.777 1 2 cbr 500 ------- 1 0.0 2.0 75 81
d 0.777 1 2 cbr 500 ------- 1 0.0 2.0 75 81
- 0.778 0 1 cbr 500 ------- 1 0.0 2.0 77 83
r 0.780857 1 2 cbr 1000 ------- 1 0.0 2.0 68 74
- 0.782286 1 2 cbr 500 ------- 1 0.0 2.0 71 77
+ 0.785 0 1 cbr 1000 ------- 1 0.0 2.0 78 84
- 0.785 0 1 cbr 1000 ------- 1 0.0 2.0 78 84
+ 0.785 0 1 cbr 500 ------- 1 0.0 2.0 79 85
r 0.788 0 1 cbr 1000 ------- 1 0.0 2.0 76 82
+ 0.788 1 2 cbr 1000 ------- 1 0.0 2.0 76 82
- 0.788 1 2 cbr 1000 ------- 1 0.0 2.0 72 78
r 0.792 0 1 cbr 500 ------- 1 0.0 2.0 77 83
+ 0.792 1 2 cbr 500 ------- 1 0.0 2.0 77 83
r 0.792286 1 2 cbr 1000 ------- 1 0.0 2.0 70 76
- 0.793 0 1 cbr 500 ------- 1 0.0 2.0 79 85
r 0.798 1 2 cbr 500 ------- 1 0.0 2.0 71 77
- 0.799429 1 2 cbr 500 ------- 1 0.0 2.0 73 79
+ 0.8 0 1 cbr 1000 ------- 1 0.0 2.0 80 86
- 0.8 0 1 cbr 1000 ------- 1 0.0 2.0 80 86
+ 0.8 0 1 cbr 500 ------- 1 0.0 2.0 81 87
r 0.803 0 1 cbr 1000 ------- 1 0.0 2.0 78 84
+ 0.803 1 2 cbr 1000 ------- 1 0.0 2.0 78 84
- 0.805143 1 2 cbr 1000 ------- 1 0.0 2.0 74 80
r 0.807 0 1 cbr 500 ------- 1 0.0 2.0 79 85
+ 0.807 1 2 cbr 500 ------- 1 0.0 2.0 79 85
- 0.808 0 1 cbr 500 ------- 1 0.0 2.0 81 87
r 0.809429 1 2 cbr 1000 ------- 1 0.0 2.0 72 78
+ 0.815 0 1 cbr 1000 ------- 1 0.0 2.0 82 88
- 0.815 0 1 cbr 1000 ------- 1 0.0 2.0 82 88
+ 0.815 0 1 cbr 500 ------- 1 0.0 2.0 83 89
r 0.815143 1 2 cbr 500 ------- 1 0.0 2.0 73 79
- 0.816571 1 2 cbr 1000 ------- 1 0.0 2.0 76 82
r 0.818 0 1 cbr 1000 ------- 1 0.0 2.0 80 86
+ 0.818 1 2 cbr 1000 ------- 1 0.0 2.0 80 86
r 0.822 0 1 cbr 500 ------- 1 0.0 2.0 81 87
+ 0.822 1 2 cbr 500 ------- 1 0.0 2.0 81 87
d 0.822 1 2 cbr 500 ------- 1 0.0 2.0 81 87
- 0.823 0 1 cbr 500 ------- 1 0.0 2.0 83 89
r 0.826571 1 2 cbr 1000 ------- 1 0.0 2.0 74 80
- 0.828 1 2 cbr 500 ------- 1 0.0 2.0 77 83
+ 0.83 0 1 cbr 1000 ------- 1 0.0 2.0 84 90
- 0.83 0 1 cbr 1000 ------- 1 0.0 2.0 84 90
+ 0.83 0 1 cbr 500 ------- 1 0.0 2.0 85 91
r 0.833 0 1 cbr 1000 ------- 1 0.0 2.0 82 88
+ 0.833 1 2 cbr 1000 ------- 1 0.0 2.0 82 88
- 0.833714 1 2 cbr 1000 ------- 1 0.0 2.0 78 84
r 0.837 0 1 cbr 500 ------- 1 0.0 2.0 83 89
+ 0.837 1 2 cbr 500 ------- 1 0.0 2.0 83 89
r 0.838 1 2 cbr 1000 ------- 1 0.0 2.0 76 82
- 0.838 0 1 cbr 500 ------- 1 0.0 2.0 85 91
r 0.843714 1 2 cbr 500 ------- 1 0.0 2.0 77 83
+ 0.845 0 1 cbr 1000 ------- 1 0.0 2.0 86 92
- 0.845 0 1 cbr 1000 ------- 1 0.0 2.0 86 92
+ 0.845 0 1 cbr 500 ------- 1 0.0 2.0 87 93
- 0.845143 1 2 cbr 500 ------- 1 0.0 2.0 79 85
r 0.848 0 1 cbr 1000 ------- 1 0.0 2.0 84 90
+ 0.848 1 2 cbr 1000 ------- 1 0.0 2.0 84 90
- 0.850857 1 2 cbr 1000 ------- 1 0.0 2.0 80 86
r 0.852 0 1 cbr 500 ------- 1 0.0 2.0 85 91
+ 0.852 1 2 cbr 500 ------- 1 0.0 2.0 85 91
- 0.853 0 1 cbr 500 ------- 1 0.0 2.0 87 93
r 0.855143 1 2 cbr 1000 ------- 1 0.0 2.0 78 84
+ 0.86 0 1 cbr 1000 ------- 1 0.0 2.0 88 94
- 0.86 0 1 cbr 1000 ------- 1 0.0 2.0 88 94
+ 0.86 0 1 cbr 500 ------- 1 0.0 2.0 89 95
r 0.860857 1 2 cbr 500 ------- 1 0.0 2.0 79 85
- 0.862286 1 2 cbr 1000 ------- 1 0.0 2.0 82 88
r 0.863 0 1 cbr 1000 ------- 1 0.0 2.0 86 92
+ 0.863 1 2 cbr 1000 ------- 1 0.0 2.0 86 92
r 0.867 0 1 cbr 500 ------- 1 0.0 2.0 87 93
+ 0.867 1 2 cbr 500 ------- 1 0.0 2.0 87 93
d 0.867 1 2 cbr 500 ------- 1 0.0 2.0 87 93
- 0.868 0 1 cbr 500 ------- 1 0.0 2.0 89 95
r 0.872286 1 2 cbr 1000 ------- 1 0.0 2.0 80 86
- 0.873714 1 2 cbr 500 ------- 1 0.0 2.0 83 89
+ 0.875 0 1 cbr 1000 ------- 1 0.0 2.0 90 96
- 0.875 0 1 cbr 1000 ------- 1 0.0 2.0 90 96
+ 0.875 0 1 cbr 500 ------- 1 0.0 2.0 91 97
r 0.878 0 1 cbr 1000 ------- 1 0.0 2.0 88 94
+ 0.878 1 2 cbr 1000 ------- 1 0.0 2.0 88 94
- 0.879429 1 2 cbr 1000 ------- 1 0.0 2.0 84 90
r 0.882 0 1 cbr 500 ------- 1 0.0 2.0 89 95
+ 0.882 1 2 cbr 500 ------- 1 0.0 2.0 89 95
- 0.883 0 1 cbr 500 ------- 1 0.0 2.0 91 97
r 0.883714 1 2 cbr 1000 ------- 1 0.0 2.0 82 88
r 0.889429 1 2 cbr 500 ------- 1 0.0 2.0 83 89
+ 0.89 0 1 cbr 1000 ------- 1 0.0 2.0 92 98
- 0.89 0 1 cbr 1000 ------- 1 0.0 2.0 92 98
+ 0.89 0 1 cbr 500 ------- 1 0.0 2.0 93 99
- 0.890857 1 2 cbr 500 ------- 1 0.0 2.0 85 91
r 0.893 0 1 cbr 1000 ------- 1 0.0 2.0 90 96
+ 0.893 1 2 cbr 1000 ------- 1 0.0 2.0 90 96
- 0.896571 1 2 cbr 1000 ------- 1 0.0 2.0 86 92
r 0.897 0 1 cbr 500 ------- 1 0.0 2.0 91 97
+ 0.897 1 2 cbr 500 ------- 1 0.0 2.0 91 97
- 0.898 0 1 cbr 500 ------- 1 0.0 2.0 93 99
r 0.900857 1 2 cbr 1000 ------- 1 0.0 2.0 84 90
+ 0.905 0 1 cbr 1000 ------- 1 0.0 2.0 94 100
- 0.905 0 1 cbr 1000 ------- 1 0.0 2.0 94 100
+ 0.905 0 1 cbr 500 ------- 1 0.0 2.0 95 101
r 0.906571 1 2 cbr 500 ------- 1 0.0 2.0 85 91
- 0.908 1 2 cbr 1000 ------- 1 0.0 2.0 88 94
r 0.908 0 1 cbr 1000 ------- 1 0.0 2.0 92 98
+ 0.908 1 2 cbr 1000 ------- 1 0.0 2.0 92 98
r 0.912 0 1 cbr 500 ------- 1 0.0 2.0 93 99
+ 0.912 1 2 cbr 500 ------- 1 0.0 2.0 93 99
d 0.912 1 2 cbr 500 ------- 1 0.0 2.0 93 99
- 0.913 0 1 cbr 500 ------- 1 0.0 2.0 95 101
r 0.918 1 2 cbr 1000 ------- 1 0.0 2.0 86 92
- 0.919429 1 2 cbr 500 ------- 1 0.0 2.0 89 95
+ 0.92 0 1 cbr 1000 ------- 1 0.0 2.0 96 102
- 0.92 0 1 cbr 1000 ------- 1 0.0 2.0 96 102
+ 0.92 0 1 cbr 500 ------- 1 0.0 2.0 97 103
r 0.923 0 1 cbr 1000 ------- 1 0.0 2.0 94 100
+ 0.923 1 2 cbr 1000 ------- 1 0.0 2.0 94 100
- 0.925143 1 2 cbr 1000 ------- 1 0.0 2.0 90 96
r 0.927 0 1 cbr 500 ------- 1 0.0 2.0 95 101
+ 0.927 1 2 cbr 500 ------- 1 0.0 2.0 95 101
- 0.928 0 1 cbr 500 ------- 1 0.0 2.0 97 103
r 0.929429 1 2 cbr 1000 ------- 1 0.0 2.0 88 94
+ 0.935 0 1 cbr 1000 ------- 1 0.0 2.0 98 104
- 0.935 0 1 cbr 1000 ------- 1 0.0 2.0 98 104
+ 0.935 0 1 cbr 500 ------- 1 0.0 2.0 99 105
r 0.935143 1 2 cbr 500 ------- 1 0.0 2.0 89 95
- 0.936571 1 2 cbr 500 ------- 1 0.0 2.0 91 97
r 0.938 0 1 cbr 1000 ------- 1 0.0 2.0 96 102
+ 0.938 1 2 cbr 1000 ------- 1 0.0 2.0 96 102
r 0.942 0 1 cbr 500 ------- 1 0.0 2.0 97 103
+ 0.942 1 2 cbr 500 ------- 1 0.0 2.0 97 103
d 0.942 1 2 cbr 500 ------- 1 0.0 2.0 97 103
- 0.942286 1 2 cbr 1000 ------- 1 0.0 2.0 92 98
- 0.943 0 1 cbr 500 ------- 1 0.0 2.0 99 105
r 0.946571 1 2 cbr 1000 ------- 1 0.0 2.0 90 96
+ 0.95 0 1 cbr 1000 ------- 1 0.0 2.0 100 106
- 0.95 0 1 cbr 1000 ------- 1 0.0 2.0 100 106
+ 0.95 0 1 cbr 500 ------- 1 0.0 2.0 101 107
r 0.952286 1 2 cbr 500 ------- 1 0.0 2.0 91 97
r 0.953 0 1 cbr 1000 ------- 1 0.0 2.0 98 104
+ 0.953 1 2 cbr 1000 ------- 1 0.0 2.0 98 104
- 0.953714 1 2 cbr 1000 ------- 1 0.0 2.0 94 100
r 0.957 0 1 cbr 500 ------- 1 0.0 2.0 99 105
+ 0.957 1 2 cbr 500 ------- 1 0.0 2.0 99 105
- 0.958 0 1 cbr 500 ------- 1 0.0 2.0 101 107
r 0.963714 1 2 cbr 1000 ------- 1 0.0 2.0 92 98
+ 0.965 0 1 cbr 1000 ------- 1 0.0 2.0 102 108
- 0.965 0 1 cbr 1000 ------- 1 0.0 2.0 102 108
+ 0.965 0 1 cbr 500 ------- 1 0.0 2.0 103 109
- 0.965143 1 2 cbr 500 ------- 1 0.0 2.0 95 101
r 0.968 0 1 cbr 1000 ------- 1 0.0 2.0 100 106
+ 0.968 1 2 cbr 1000 ------- 1 0.0 2.0 100 106
- 0.970857 1 2 cbr 1000 ------- 1 0.0 2.0 96 102
r 0.972 0 1 cbr 500 ------- 1 0.0 2.0 101 107
+ 0.972 1 2 cbr 500 ------- 1 0.0 2.0 101 107
- 0.973 0 1 cbr 500 ------- 1 0.0 2.0 103 109
r 0.975143 1 2 cbr 1000 ------- 1 0.0 2.0 94 100
+ 0.98 0 1 cbr 1000 ------- 1 0.0 2.0 104 110
- 0.98 0 1 cbr 1000 ------- 1 0.0 2.0 104 110
+ 0.98 0 1 cbr 500 ------- 1 0.0 2.0 105 111
r 0.980857 1 2 cbr 500 ------- 1 0.0 2.0 95 101
- 0.982286 1 2 cbr 1000 ------- 1 0.0 2.0 98 104
r 0.983 0 1 cbr 1000 ------- 1 0.0 2.0 102 108
+ 0.983 1 2 cbr 1000 ------- 1 0.0 2.0 102 108
r 0.987 0 1 cbr 500 ------- 1 0.0 2.0 103 109
+ 0.987 1 2 cbr 500 ------- 1 0.0 2.0 103 109
d 0.987 1 2 cbr 500 ------- 1 0.0 2.0 103 109
- 0.988 0 1 cbr 500 ------- 1 0.0 2.0 105 111
r 0.992286 1 2 cbr 1000 ------- 1 0.0 2.0 96 102
- 0.993714 1 2 cbr 500 ------- 1 0.0 2.0 99 105
+ 0.995 0 1 cbr 1000 ------- 1 0.0 2.0 106 112
- 0.995 0 1 cbr 1000 ------- 1 0.0 2.0 106 112
+ 0.995 0 1 cbr 500 ------- 1 0.0 2.0 107 113
r 0.998 0 1 cbr 1000 ------- 1 0.0 2.0 104 110
+ 0.998 1 2 cbr 1000 ------- 1 0.0 2.0 104 110
- 0.999429 1 2 cbr 1000 ------- 1 0.0 2.0 100 106
r 1.002 0 1 cbr 500 ------- 1 0.0 2.0 105 111
+ 1.002 1 2 cbr 500 ------- 1 0.0 2.0 105 111
- 1.003 0 1 cbr 500 ------- 1 0.0 2.0 107 113
r 1.003714 1 2 cbr 1000 ------- 1 0.0 2.0 98 104
r 1.009429 1 2 cbr 500 ------- 1 0.0 2.0 99 105
+ 1.01 0 1 cbr 1000 ------- 1 0.0 2.0 108 114
- 1.01 0 1 cbr 1000 ------- 1 0.0 2.0 108 114
+ 1.01 0 1 cbr 500 ------- 1 0.0 2.0 109 115
- 1.010857 1 2 cbr 500 ------- 1 0.0 2.0 101 107
r 1.013 0 1 cbr 1000 ------- 1 0.0 2.0 106 112
+ 1.013 1 2 cbr 1000 ------- 1 0.0 2.0 106 112
- 1.016571 1 2 cbr 1000 ------- 1 0.0 2.0 102 108
r 1.017 0 1 cbr 500 ------- 1 0.0 2.0 107 113
+ 1.017 1 2 cbr 500 ------- 1 0.0 2.0 107 113
- 1.018 0 1 cbr 500 ------- 1 0.0 2.0 109 115
r 1.020857 1 2 cbr 1000 ------- 1 0.0 2.0 100 106
+ 1.025 0 1 cbr 1000 ------- 1 0.0 2.0 110 116
- 1.025 0 1 cbr 1000 ------- 1 0.0 2.0 110 116
+ 1.025 0 1 cbr 500 ------- 1 0.0 2.0 111 117
r 1.026571 1 2 cbr 500 ------- 1 0.0 2.0 101 107
- 1.028 1 2 cbr 1000 ------- 1 0.0 2.0 104 110
r 1.028 0 1 cbr 1000 ------- 1 0.0 2.0 108 114
+ 1.028 1 2 cbr 1000 ------- 1 0.0 2.0 108 114
r 1.032 0 1 cbr 500 ------- 1 0.0 2.0 109 115
+ 1.032 1 2 cbr 500 ------- 1 0.0 2.0 109 115
d 1.032 1 2 cbr 500 ------- 1 0.0 2.0 109 115
- 1.033 0 1 cbr 500 ------- 1 0.0 2.0 111 117
r 1.038 1 2 cbr 1000 ------- 1 0.0 2.0 102 108
- 1.039429 1 2 cbr 500 ------- 1 0.0 2.0 105 111
+ 1.04 0 1 cbr 1000 ------- 1 0.0 2.0 112 118
- 1.04 0 1 cbr 1000 ------- 1 0.0 2.0 112 118
+ 1.04 0 1 cbr 500 ------- 1 0.0 2.0 113 119
r 1.043 0 1 cbr 1000 ------- 1 0.0 2.0 110 116
+ 1.043 1 2 cbr 1000 ------- 1 0.0 2.0 110 116
- 1.045143 1 2 cbr 1000 ------- 1 0.0 2.0 106 112
r 1.047 0 1 cbr 500 ------- 1 0.0 2.0 111 117
+ 1.047 1 2 cbr 500 ------- 1 0.0 2.0 111 117
- 1.048 0 1 cbr 500 ------- 1 0.0 2.0 113 119
r 1.049429 1 2 cbr 1000 ------- 1 0.0 2.0 104 110
+ 1.055 0 1 cbr 1000 ------- 1 0.0 2.0 114 120
- 1.055 0 1 cbr 1000 ------- 1 0.0 2.0 114 120
+ 1.055 0 1 cbr 500 ------- 1 0.0 2.0 115 121
r 1.055143 1 2 cbr 500 ------- 1 0.0 2.0 105 111
- 1.056571 1 2 cbr 500 ------- 1 0.0 2.0 107 113
r 1.058 0 1 cbr 1000 ------- 1 0.0 2.0 112 118
+ 1.058 1 2 cbr 1000 ------- 1 0.0 2.0 112 118
r 1.062 0 1 cbr 500 ------- 1 0.0 2.0 113 119
+ 1.062 1 2 cbr 500 ------- 1 0.0 2.0 113 119
d 1.062 1 2 cbr 500 ------- 1 0.0 2.0 113 119
- 1.062286 1 2 cbr 1000 ------- 1 0.0 2.0 108 114
- 1.063 0 1 cbr 500 ------- 1 0.0 2.0 115 121
r 1.066571 1 2 cbr 1000 ------- 1 0.0 2.0 106 112
+ 1.07 0 1 cbr 1000 ------- 1 0.0 2.0 116 122
- 1.07 0 1 cbr 1000 ------- 1 0.0 2.0 116 122
+ 1.07 0 1 cbr 500 ------- 1 0.0 2.0 117 123
r 1.072286 1 2 cbr 500 ------- 1 0.0 2.0 107 113
r 1.073 0 1 cbr 1000 ------- 1 0.0 2.0 114 120
+ 1.073 1 2 cbr 1000 ------- 1 0.0 2.0 114 120
- 1.073714 1 2 cbr 1000 ------- 1 0.0 2.0 110 116
r 1.077 0 1 cbr 500 ------- 1 0.0 2.0 115 121
+ 1.077 1 2 cbr 500 ------- 1 0.0 2.0 115 121
- 1.078 0 1 cbr 500 ------- 1 0.0 2.0 117 123
r 1.083714 1 2 cbr 1000 ------- 1 0.0 2.0 108 114
+ 1.085 0 1 cbr 1000 ------- 1 0.0 2.0 118 124
- 1.085 0 1 cbr 1000 ------- 1 0.0 2.0 118 124
+ 1.085 0 1 cbr 500 ------- 1 0.0 2.0 119 125
- 1.085143 1 2 cbr 500 ------- 1 0.0 2.0 111 117
r 1.088 0 1 cbr 1000 ------- 1 0.0 2.0 116 122
+ 1.088 1 2 cbr 1000 ------- 1 0.0 2.0 116 122
- 1.090857 1 2 cbr 1000 ------- 1 0.0 2.0 112 118
r 1.092 0 1 cbr 500 ------- 1 0.0 2.0 117 123
+ 1.092 1 2 cbr 500 ------- 1 0.0 2.0 117 123
- 1.093 0 1 cbr 500 ------- 1 0.0 2.0 119 125
r 1.095143 1 2 cbr 1000 ------- 1 0.0 2.0 110 116
+ 1.1 0 1 cbr 1000 ------- 1 0.0 2.0 120 126
- 1.1 0 1 cbr 1000 ------- 1 0.0 2.0 120 126
+ 1.1 0 1 cbr 500 ------- 1 0.0 2.0 121 127
r 1.100857 1 2 cbr 500 ------- 1 0.0 2.0 111 117
- 1.102286 1 2 cbr 1000 ------- 1 0.0 2.0 114 120
r 1.103 0 1 cbr 1000 ------- 1 0.0 2.0 118 124
+ 1.103 1 2 cbr 1000 ------- 1 0.0 2.0 118 124
r 1.107 0 1 cbr 500 ------- 1 0.0 2.0 119 125
+ 1.107 1 2 cbr 500 ------- 1 0.0 2.0 119 125
d 1.107 1 2 cbr 500 ------- 1 0.0 2.0 119 125
- 1.108 0 1 cbr 500 ------- 1 0.0 2.0 121 127
r 1.112286 1 2 cbr 1000 ------- 1 0.0 2.0 112 118
- 1.113714 1 2 cbr 500 ------- 1 0.0 2.0 115 121
+ 1.115 0 1 cbr 1000 ------- 1 0.0 2.0 122 128
- 1.115 0 1 cbr 1000 ------- 1 0.0 2.0 122 128
+ 1.115 0 1 cbr 500 ------- 1 0.0 2.0 123 129
r 1.118 0 1 cbr 1000 ------- 1 0.0 2.0 120 126
+ 1.118 1 2 cbr 1000 ------- 1 0.0 2.0 120 126
- 1.119429 1 2 cbr 1000 ------- 1 0.0 2.0 116 122
r 1.122 0 1 cbr 500 ------- 1 0.0 2.0 121 127
+ 1.122 1 2 cbr 500 ------- 1 0.0 2.0 121 127
- 1.123 0 1 cbr 500 ------- 1 0.0 2.0 123 129